[{"__ndarray__": [[141, 141], "float64", [68.60939052693402, -1.390609473056673, -0.025955236883040685, -1.3906094730659724, -1.390609473056497, -0.03848727446554055, 8.742451602179304e-14, -2.1502105345852125e-12, 0.018460348507962583, -1.3906094730659724, -1.3906094730564975, -5.964699936510954e-11, 8.742451913302049e-14, -2.1500795159333926e-12, 0.030992385998190354, 8.742452039007814e-14, -2.150118103554013e-12, -0.03345012512235596, 8.742451695730852e-14, -2.150249121451732e-12, -0.04598216276738919, -1.3906094730659724, -1.3906094730564975, 0.010965460193830021, 8.7424518641694e-14, -2.150164318753073e-12, -0.00749488834773844, -1.3906094730659724, -1.3906094730564982, 0.023497497751687142, -1.3906094730659724, -1.3906094730564975, 0.2074865491720047, 8.74245195638055e-14, -2.150634187381019e-12, -0.12015836605098165, 8.742451850644253e-14, -2.15065061013512e-12, -0.21498143755137836, -1.3906094730659724, -1.390609473056498, 0.1126634776856755, 8.742451848139197e-14, -2.149678027777769e-12, 0.1999916609177657, -1.3906094730659722, -1.3906094730564103, -0.1276532543345243, -1.3906094730659724, -1.3906094730564134, -0.22247632574047338, 8.742451894206023e-14, -2.1496944481251467e-12, 0.10516858933342216, -1.3906094730659724, -1.3906094730566472, -0.2901128302520643, -1.3906094730659724, -2.1499388845773142e-12, -0.010222576048875442, -1.3906094730659717, -2.1498534311318912e-12, -0.005592655775696441, -1.3906094730659726, -2.15047520528548e-12, -0.0019022326116936372, 8.742451876640686e-14, -2.1505386294995894e-12, 0.2826179419016324, -1.3906094730659722, -1.390609473056586, -0.1259648925858755, 8.742451847093016e-14, -2.150070199809115e-12, 0.11847000421451952, 8.742451826433101e-14, -1.3906094730564975, -0.01022257604887568, -1.3906094730659726, -2.1503897524850735e-12, 0.0027276876958210444, 8.742451819441597e-14, -1.3906094730565002, -0.0055926557757040715, 8.742451873171402e-14, -1.3906094730564107, 0.002727687696000307, 8.742451864169397e-14, -2.1501643187530733e-12, -5.964699936510954e-11, 8.742451872565538e-14, -1.3906094730564111, -0.0019022326117689708, 8.742451868728291e-14, -2.1497900083455184e-12, -0.2976077185077714, 8.742451855939948e-14, -1.3906094730565859, -0.01771746416620211, 8.74245188182949e-14, -1.3906094730564982, -0.013087544179344015, 8.742451812704056e-14, -1.39060947305641, -0.00939712084978835, -1.3906094730659726, -1.390609473056501, 0.2751230536359368, 8.742451900117242e-14, -2.150258438113841e-12, -0.1334597808504541, -1.3906094730659726, -1.3906094730564973, 0.11097511609811134, -1.3906094730659722, -2.1499388851775262e-12, -0.017717464166192468, 8.742451830524905e-14, -1.3906094730564107, -0.004767200551827371, -1.3906094730659717, -2.1498534325286402e-12, -0.01308754417795338, -1.3906094730659726, -2.150389752018706e-12, -0.004767200550430912, -1.3906094730659722, -1.3906094730564982, -0.0074948883484545654, -1.3906094730659726, -2.150475203940169e-12, -0.00939712084979929, 1.260216457900616, 1.816336651899624e-30, -1.9988035256416892e-25, 4.689677456411913e-33, 1.260216457892413, 1.7123892342871123e-12, -2.0044643925196404e-25, 6.41750380871398e-12, 2.214740069369123, -1.390609473056673, 68.60939052695264, -0.025955236887648007, -1.3906094730566732, -1.3906094730471976, -0.03848727446140947, 8.742451602120735e-14, -2.1502105345707776e-12, 0.018460348512059566, -1.3906094730566732, -1.3906094730471978, -5.964699936470926e-11, 8.742451913243477e-14, -2.1500795159189646e-12, 0.030992385993548865, 8.742452038949248e-14, -2.150118103539581e-12, -0.033450125127473605, 8.742451695672286e-14, -2.150249121437294e-12, -0.045982162763768514, -1.3906094730566732, -1.3906094730471978, 0.010965460197416472, 8.742451864110831e-14, -2.150164318738639e-12, -0.007494888348248794, -1.3906094730566732, -1.3906094730471985, 0.02349749774653529, -1.3906094730566732, -1.3906094730471978, 0.2074865491644976, 8.742451956321981e-14, -2.1506341873665728e-12, -0.12015836614707948, 8.742451850585686e-14, -2.1506506101206686e-12, -0.21498143754438168, -1.3906094730566732, -1.3906094730471983, 0.1126634777812627, 8.742451848080628e-14, -2.149678027763353e-12, 0.19999166090974824, -1.390609473056673, -1.390609473047111, -0.12765325443113246, -1.390609473056673, -1.3906094730471141, -0.22247632573398698, 8.742451894147454e-14, -2.149694448110726e-12, 0.10516858942849905, -1.3906094730566732, -1.3906094730473482, -0.29011283030283314, -1.3906094730566732, -2.149938884562882e-12, -0.01022257606139262, -1.3906094730566725, -2.14985343111746e-12, -0.0055926557906523355, -1.3906094730566734, -2.150475205271045e-12, -0.0019022325972481826, 8.742451876582121e-14, -2.150538629485156e-12, 0.2826179419518912, -1.390609473056673, -1.3906094730472864, -0.1259648925856946, 8.742451847034445e-14, -2.150070199794699e-12, 0.11847000421382818, 8.742451826374533e-14, -1.390609473047198, -0.010222576061392886, -1.3906094730566734, -2.1503897524706394e-12, 0.0027276877078278566, 8.742451819383023e-14, -1.3906094730472005, -0.005592655790659953, 8.742451873112837e-14, -1.390609473047111, 0.002727687708007104, 8.742451864110827e-14, -2.15016431873864e-12, -5.964699936470925e-11, 8.74245187250697e-14, -1.3906094730471112, -0.0019022325973235012, 8.742451868669724e-14, -2.1497900083310835e-12, -0.29760771855905105, 8.74245185588138e-14, -1.390609473047286, -0.01771746417922974, 8.742451881770924e-14, -1.3906094730471983, -0.013087544194810272, 8.742451812645487e-14, -1.3906094730471106, -0.00939712083585327, -1.3906094730566734, -1.3906094730472012, 0.27512305368568474, 8.742451900058673e-14, -2.1502584380993894e-12, -0.13345978085078355, -1.3906094730566734, -1.3906094730471974, 0.11097511609690969, -1.390609473056673, -2.1499388851630934e-12, -0.01771746417922012, 8.742451830466337e-14, -1.3906094730471108, -0.004767200540330906, -1.3906094730566725, -2.149853432514208e-12, -0.01308754419341961, -1.3906094730566734, -2.1503897520042715e-12, -0.004767200538934459, -1.390609473056673, -1.3906094730471983, -0.007494888348964948, -1.3906094730566734, -2.1504752039257333e-12, -0.009397120835864185, 1.260216458182608, 1.8163366519069724e-30, -1.998803524326996e-25, 4.689677456390799e-33, 1.2602164581744055, 1.7123892554951726e-12, -2.004464391207289e-25, 6.417503800653091e-12, 2.2147400698203414, -0.025955236883040685, -0.025955236887648007, 53.976978604157296, -0.0259552368830407, -0.025955236887648198, -0.35048221789814005, 3.805236964742247e-16, 2.5242756300537758e-14, 15.351652345121646, -0.0259552368830407, -0.025955236887652413, 5.760103699494029e-13, 3.8044996175960533e-16, 2.5638441968612078e-14, -0.32088683336998836, 3.8050227927199286e-16, 2.567553087156661e-14, -16.694390446447247, 3.804597343861555e-16, 2.5279684972736816e-14, -1.0218512687884085, -0.0259552368830407, -0.025955236887652458, 14.680283293851687, 3.805303102257189e-16, 2.545913160377507e-14, -0.671369051181259, -0.0259552368830407, -0.025955236887646997, -0.9922558835055703, -0.0259552368830407, -0.02595523688764774, -1.1415398720157677, 3.805599345968932e-16, 2.529668885911933e-14, -0.9723877246879347, 3.8057396310037735e-16, 2.514298743047393e-14, 0.47017082081173467, -0.0259552368830407, -0.025955236887653377, 0.3010186734911384, 3.8046370144810033e-16, 2.5775273006928544e-14, -1.8129089244160215, -0.02595523688304067, -0.02595523688765327, -1.6437567758130112, -0.025955236883040685, -0.025955236887682157, -0.20119823008297022, 3.8050704618370934e-16, 2.562155615749753e-14, -0.3703503781662436, -0.0259552368830407, -0.02595523688746434, -0.3587982847542237, -0.0259552368830407, 2.5432742410812466e-14, -0.22307767047869687, -0.025955236883040616, 2.5524921884956052e-14, -0.4723949513262552, -0.025955236883040682, 2.5393331010831514e-14, -0.19897409969519203, 3.805406386642361e-16, 2.5535740827874347e-14, -0.3125707662253172, -0.02595523688304067, -0.02595523688764793, -0.1896302407996155, 3.8052992651558453e-16, 2.580826494274752e-14, -0.481738810121632, 3.8051391999478753e-16, -0.025955236887648118, -0.2230776704786961, -0.025955236883040682, 2.5485511798071198e-14, -0.44829138067050045, 3.8050153425619586e-16, -0.025955236887683416, -0.47239495132625364, 3.805356552446418e-16, -0.02595523688764767, -0.4482913806705253, 3.8053031022568387e-16, 2.5459131603762903e-14, 5.760103699493449e-13, 3.8054789713749083e-16, -0.025955236887651945, -0.19897409969518898, 3.8054585770814795e-16, 2.53825212809549e-14, -1.0301673364674848, 3.805438903320672e-16, -0.025955236887647587, -0.8944467216431905, 3.805099099194491e-16, -0.025955236887652486, -1.143764001796555, 3.805265070738396e-16, -0.025955236887652996, -0.8703431509235326, -0.025955236883040682, -0.025955236887682212, -0.9839398170430479, 3.8054253262670517e-16, 2.511003907301675e-14, -0.8609992926882704, -0.025955236883040682, -0.025955236887653173, -1.1531078607986112, -0.02595523688304067, 2.5432760736998653e-14, -0.8944467216431904, 3.804957241358179e-16, -0.025955236887651934, -1.1196604313243617, -0.025955236883040616, 2.5524946515865372e-14, -1.1437640017965638, -0.025955236883040682, 2.5485515793980016e-14, -1.119660431324363, -0.02595523688304067, -0.025955236887653547, -0.6713690511812631, -0.025955236883040682, 2.53933447638516e-14, -0.8703431509235315, 1.0800262476060642, -1.0485463652780782e-30, 9.466333751239242e-25, -1.8865091483324524e-32, 1.0800262475159528, 7.280844957100997e-11, 9.469622125128615e-25, 1.683696649548104e-11, -8.708845799751144, -1.3906094730659724, -1.3906094730566732, -0.0259552368830407, 68.60939052693402, -1.3906094730564973, -0.03848727446554057, 8.742451602179305e-14, -2.1502105345852133e-12, 0.01846034850796259, -1.3906094730659726, -1.390609473056498, -5.964699936510955e-11, 8.74245191330205e-14, -2.1500795159333926e-12, 0.030992385998190375, 8.742452039007816e-14, -2.1501181035540133e-12, -0.03345012512235588, 8.742451695730854e-14, -2.1502491214517324e-12, -0.045982162767389215, -1.3906094730659726, -1.390609473056498, 0.010965460193830105, 8.742451864169401e-14, -2.1501643187530733e-12, -0.00749488834773842, -1.3906094730659726, -1.3906094730564984, 0.023497497751687163, -1.3906094730659726, -1.3906094730564977, 0.2074865491720047, 8.742451956380552e-14, -2.1506341873810194e-12, -0.12015836605098174, 8.742451850644256e-14, -2.1506506101351204e-12, -0.21498143755137836, -1.3906094730659726, -1.3906094730564982, 0.11266347768567544, 8.742451848139198e-14, -2.1496780277777693e-12, 0.19999166091776568, -1.3906094730659724, -1.3906094730564107, -0.12765325433452435, -1.3906094730659724, -1.3906094730564138, -0.2224763257404734, 8.742451894206026e-14, -2.149694448125147e-12, 0.10516858933342219, -1.3906094730659726, -1.3906094730566476, -0.2901128302520645, -1.3906094730659726, -2.1499388845773146e-12, -0.010222576048875404, -1.3906094730659722, -2.149853431131892e-12, -0.00559265577569645, -1.390609473065973, -2.150475205285481e-12, -0.001902232611693663, 8.742451876640688e-14, -2.1505386294995898e-12, 0.2826179419016326, -1.3906094730659724, -1.3906094730565863, -0.12596489258587554, 8.742451847093018e-14, -2.1500701998091152e-12, 0.1184700042145195, 8.742451826433102e-14, -1.3906094730564977, -0.010222576048875673, -1.390609473065973, -2.150389752485074e-12, 0.0027276876958210357, 8.742451819441598e-14, -1.3906094730565006, -0.005592655775704066, 8.742451873171404e-14, -1.390609473056411, 0.002727687696000302, 8.742451864169398e-14, -2.1501643187530737e-12, -5.964699936510954e-11, 8.74245187256554e-14, -1.3906094730564114, -0.0019022326117689617, 8.742451868728294e-14, -2.1497900083455188e-12, -0.29760771850777157, 8.742451855939953e-14, -1.390609473056586, -0.017717464166202096, 8.742451881829491e-14, -1.3906094730564982, -0.013087544179343998, 8.742451812704059e-14, -1.3906094730564103, -0.009397120849788292, -1.390609473065973, -1.3906094730565013, 0.2751230536359368, 8.742451900117243e-14, -2.1502584381138416e-12, -0.1334597808504541, -1.390609473065973, -1.3906094730564977, 0.11097511609811138, -1.3906094730659724, -2.1499388851775266e-12, -0.01771746416619245, 8.742451830524907e-14, -1.390609473056411, -0.004767200551827361, -1.3906094730659722, -2.149853432528641e-12, -0.013087544177953332, -1.390609473065973, -2.1503897520187064e-12, -0.0047672005504309, -1.3906094730659724, -1.3906094730564984, -0.007494888348454558, -1.390609473065973, -2.150475203940169e-12, -0.009397120849799259, 1.2602164579006165, 1.8163366518996243e-30, -1.9988035256416882e-25, 4.6896774564119144e-33, 1.2602164578924138, 1.7123892342871171e-12, -2.0044643925196404e-25, 6.4175038087139865e-12, 2.214740069369123, -1.390609473056497, -1.3906094730471976, -0.025955236887648198, -1.3906094730564973, 68.60939052695298, -0.03848727446140767, 8.742451602119629e-14, -2.150210534570506e-12, 0.018460348512055632, -1.3906094730564973, -1.390609473047022, -5.964699936470171e-11, 8.742451913242374e-14, -2.1500795159186924e-12, 0.03099238599354301, 8.742452038948142e-14, -2.1501181035393086e-12, -0.03345012512747797, 8.742451695671182e-14, -2.1502491214370216e-12, -0.04598216276377084, -1.3906094730564973, -1.390609473047022, 0.010965460197408518, 8.742451864109726e-14, -2.1501643187383674e-12, -0.0074948883482529, -1.3906094730564973, -1.3906094730470229, 0.023497497746525275, -1.3906094730564973, -1.3906094730470222, 0.2074865491644707, 8.742451956320877e-14, -2.1506341873663014e-12, -0.12015836614706778, 8.742451850584581e-14, -2.150650610120397e-12, -0.21498143754435892, -1.3906094730564973, -1.3906094730470226, 0.11266347778124707, 8.742451848079521e-14, -2.1496780277630804e-12, 0.19999166090971718, -1.390609473056497, -1.3906094730469352, -0.12765325443112485, -1.390609473056497, -1.3906094730469383, -0.22247632573396836, 8.74245189414635e-14, -2.1496944481104534e-12, 0.10516858942847926, -1.3906094730564973, -1.3906094730471725, -0.2901128303028003, -1.3906094730564973, -2.1499388845626103e-12, -0.010222576061394071, -1.3906094730564966, -2.1498534311171874e-12, -0.00559265579065426, -1.3906094730564975, -2.150475205270773e-12, -0.0019022325972503813, 8.742451876581015e-14, -2.1505386294848847e-12, 0.2826179419518541, -1.390609473056497, -1.390609473047111, -0.12596489258568455, 8.742451847033343e-14, -2.150070199794427e-12, 0.11847000421381403, 8.742451826373426e-14, -1.3906094730470224, -0.01022257606139434, -1.3906094730564975, -2.150389752470367e-12, 0.002727687707825192, 8.742451819381921e-14, -1.3906094730470249, -0.005592655790661779, 8.742451873111731e-14, -1.3906094730469352, 0.0027276877080044445, 8.742451864109723e-14, -2.1501643187383674e-12, -5.964699936470171e-11, 8.742451872505866e-14, -1.3906094730469356, -0.0019022325973256792, 8.74245186866862e-14, -2.1497900083308125e-12, -0.29760771855902207, 8.742451855880275e-14, -1.3906094730471104, -0.017717464179235264, 8.742451881769819e-14, -1.3906094730470224, -0.013087544194816305, 8.742451812644384e-14, -1.390609473046935, -0.009397120835859567, -1.3906094730564975, -1.390609473047026, 0.2751230536856435, 8.742451900057567e-14, -2.1502584380991175e-12, -0.13345978085077753, -1.3906094730564975, -1.3906094730470218, 0.11097511609689131, -1.390609473056497, -2.149938885162821e-12, -0.017717464179225623, 8.742451830465233e-14, -1.3906094730469352, -0.004767200540337666, -1.3906094730564966, -2.1498534325139368e-12, -0.013087544193425615, -1.3906094730564975, -2.1503897520039997e-12, -0.004767200538941235, -1.390609473056497, -1.3906094730470226, -0.007494888348969061, -1.3906094730564975, -2.150475203925462e-12, -0.00939712083587052, 1.2602164581823578, 1.816336651906712e-30, -1.998803524327519e-25, 4.6896774563901874e-33, 1.260216458174155, 1.712389255494933e-12, -2.004464391207812e-25, 6.417503800652256e-12, 2.2147400698201287, -0.03848727446554055, -0.03848727446140947, -0.35048221789814005, -0.03848727446554057, -0.03848727446140767, 53.218693369405386, 1.1685444611970197e-15, 6.0954968249871474e-15, -0.32087906665036625, -0.03848727446554057, -0.038487274461406984, 3.828787219548343e-14, 1.1685909645986522e-15, 5.7546879626813785e-15, 16.109945347351733, 1.1685176361234984e-15, 6.053888105222866e-15, -1.0218435029959247, 1.1685566391986432e-15, 6.39479836897971e-15, -17.452667914719616, -0.03848727446554057, -0.03848727446140706, -0.9922403499045176, 1.1685319600065678e-15, 6.074700521483578e-15, -0.6713612837756309, -0.03848727446554057, -0.03848727446140675, 15.438584062012382, -0.03848727446554057, -0.038487274461408344, -1.6610971416298788, 1.1685177628404092e-15, 6.3934050364627264e-15, -0.9323195570142451, 1.16851165901869e-15, 6.624557413105915e-15, 0.9897358578330675, -0.03848727446554057, -0.03848727446140844, 0.2609582735215348, 1.1685929124145545e-15, 5.5248372527576934e-15, -2.3324584234107983, -0.038487274465540525, -0.03848727446140643, -1.6036808410175345, -0.03848727446554055, -0.038487274461356295, 0.3183745736942556, 1.1685525980329978e-15, 5.756012638384666e-15, -0.41040300948053376, -0.03848727446554057, -0.038487274461579415, 0.48022608447655185, -0.03848727446554057, 5.963271232552041e-15, -0.371565786467538, -0.03848727446554052, 6.115467964937053e-15, -0.25458874147637095, -0.038487274465540566, 6.0339327655240515e-15, -0.41677254261374724, 1.1685256578852407e-15, 5.9422463683171725e-15, -1.151587368376068, -0.038487274465540525, -0.03848727446140706, 0.19319744659577753, 1.1685293169614486e-15, 5.136398307793607e-15, -0.8645587307379454, 1.1685397653286476e-15, -0.03848727446140789, -0.3715657864675368, -0.038487274465540566, 6.186143822194368e-15, -0.2997954972752277, 1.1685486300096713e-15, -0.03848727446135943, -0.25458874147637045, 1.1685255393980318e-15, -0.038487274461406304, -0.29979549727519095, 1.1685319600066013e-15, 6.0747005215065624e-15, 3.828787219542214e-14, 1.16851995856888e-15, -0.03848727446140556, -0.41677254261374796, 1.1685238656121034e-15, 6.207152514748267e-15, -0.19113519860127215, 1.1685242978741941e-15, -0.03848727446140816, -1.0429270702172195, 1.1685497920478678e-15, -0.03848727446140698, -0.9259500258991675, 1.1685255336521951e-15, -0.03848727446140674, -1.0881338260026667, -0.038487274465540566, -0.03848727446135848, -1.8229486527545864, 1.1685225492641918e-15, 7.0129796864031965e-15, -0.4781638360306862, -0.038487274465540566, -0.03848727446140923, -1.5359200152555792, -0.038487274465540525, 5.963259095923931e-15, -1.0429270702172186, 1.168550682864046e-15, -0.038487274461405506, -0.9711567817771033, -0.03848727446554052, 6.115454128823354e-15, -0.9259500258991615, -0.038487274465540566, 6.186134483046314e-15, -0.971156781777092, -0.038487274465540525, -0.0384872744614082, -0.6713612837756427, -0.038487274465540566, 6.0339370619496714e-15, -1.0881338260026654, 4.008405722604929, 9.795245632702855e-31, 2.082380006060106e-24, 1.4446510210747287e-32, 4.008405722750142, -1.345164635819125e-10, 2.0823825378729134e-24, -3.193273777994997e-11, 5.656835398396866, 8.742451602179304e-14, 8.742451602120735e-14, 3.805236964742247e-16, 8.742451602179305e-14, 8.742451602119629e-14, 1.1685444611970197e-15, 70.0, 1.3542407834654413e-25, -2.4179852035081013e-15, 8.742451602179305e-14, 8.74245160211963e-14, 3.756187399780354e-24, -5.500860824599846e-27, 1.3541582518114428e-25, -3.2060059624193064e-15, -5.500860903862219e-27, 1.3541827225669596e-25, -1.6569378191094388e-15, -5.500860687656927e-27, 1.35426525374622e-25, -8.6891705044786e-16, 8.742451602179305e-14, 8.74245160211963e-14, -4.455446714379153e-15, -5.5008607936942465e-27, 1.3542117528168683e-25, -2.0374615087550255e-15, 8.742451602179305e-14, 8.742451602119635e-14, -5.243467477550072e-15, 8.742451602179305e-14, 8.742451602119632e-14, -1.4319682126987057e-14, -5.5008608517710666e-27, 1.354507597034619e-25, 6.311925624947337e-15, -5.5008607851803125e-27, 1.3545178273172903e-25, 1.2282220620224177e-14, 8.742451602179305e-14, 8.742451602119634e-14, -8.34938713259634e-15, -5.500860783587877e-27, 1.3539056785726054e-25, -1.6357143641628896e-14, 8.742451602179304e-14, 8.742451602119085e-14, 4.274464112149696e-15, 8.742451602179304e-14, 8.742451602119104e-14, 1.0244759101478115e-14, -5.5008608126107064e-27, 1.3539159073396034e-25, -1.038684864106634e-14, 8.742451602179305e-14, 8.742451602120573e-14, 1.701516707470807e-14, 8.742451602179305e-14, 1.35406981622753e-25, -6.113258282232308e-16, 8.742451602179301e-14, 1.3540159410386647e-25, -9.028258170310643e-16, 8.742451602179307e-14, 1.3544075639094088e-25, -1.1346356892271556e-15, -5.500860801550819e-27, 1.3544474174411862e-25, -1.9052628583293837e-14, 8.742451602179304e-14, 8.742451602120188e-14, 6.675877064360345e-15, -5.500860782939819e-27, 1.3541525427792841e-25, -8.713338571628412e-15, -5.5008607699306044e-27, 8.74245160211963e-14, -6.113258282232158e-16, 8.742451602179307e-14, 1.354353689126809e-25, -1.42613568019735e-15, -5.5008607655173506e-27, 8.742451602119648e-14, -9.028258170305886e-16, -5.500860799367302e-27, 8.742451602119086e-14, -1.4261356802086276e-15, -5.500860793694244e-27, 1.3542117528168694e-25, 3.756187399780353e-24, -5.500860798983644e-27, 8.742451602119089e-14, -1.134635689222417e-15, -5.500860796566396e-27, 1.3539760884060032e-25, 1.4977705560157336e-14, -5.5008607885087796e-27, 8.742451602120186e-14, -2.6487873514892494e-15, -5.5008608048140535e-27, 8.742451602119634e-14, -2.940287322265048e-15, -5.500860761280262e-27, 8.742451602119085e-14, -3.1720972048871224e-15, 8.742451602179307e-14, 8.742451602119653e-14, -2.1090090097215717e-14, -5.500860816337618e-27, 1.3542709631169385e-25, 4.638415550368682e-15, 8.742451602179307e-14, 8.74245160211963e-14, -1.0750800094952154e-14, 8.742451602179304e-14, 1.3540698166054936e-25, -2.6487873514898564e-15, -5.500860772505529e-27, 8.742451602119086e-14, -3.463597195255942e-15, 8.742451602179301e-14, 1.3540159419182377e-25, -2.9402873223525532e-15, 8.742451602179307e-14, 1.3543536888330482e-25, -3.463597195343804e-15, 8.742451602179304e-14, 8.742451602119634e-14, -2.0374615087099646e-15, 8.742451602179307e-14, 1.3544075630622149e-25, -3.1720972048864333e-15, -7.937060510350701e-14, -1.1428282144155995e-43, 1.257910908993317e-38, -2.9502744821815997e-46, -7.937060510299035e-14, -1.079033332190494e-25, 1.2614725387659392e-38, -4.0418925554475114e-25, -1.394831429529724e-13, -2.1502105345852125e-12, -2.1502105345707776e-12, 2.5242756300537758e-14, -2.1502105345852133e-12, -2.150210534570506e-12, 6.0954968249871474e-15, 1.3542407834654413e-25, 70.0, 9.467518067507141e-14, -2.1502105345852133e-12, -2.150210534570507e-12, -9.255930897198983e-23, 1.3542408317053546e-25, -3.337379986830243e-24, 1.138224400073958e-13, 1.35424085127819e-25, -3.3374410786160526e-24, 1.4516069348683096e-13, 1.3542407979785416e-25, -3.337644462155232e-24, 1.2601343391421158e-13, -2.1502105345852133e-12, -2.150210534570507e-12, 2.1459311774522699e-13, 1.3542408241248014e-25, -3.337512224585072e-24, 1.1991793701800902e-13, -2.1502105345852133e-12, -2.150210534570507e-12, 2.337403771825334e-13, -2.1502105345852133e-12, -2.1502105345705066e-12, 3.8779196367137325e-13, 1.354240838447915e-25, -3.338241063907458e-24, -1.2063984143608968e-13, 1.354240822042495e-25, -3.338265873181612e-24, -2.678740267024516e-13, -2.1502105345852133e-12, -2.150210534570507e-12, 2.405577784268642e-13, 1.3542408216309183e-25, -3.336758576620363e-24, 5.077099008344297e-13, -2.1502105345852125e-12, -2.150210534570372e-12, -7.219043184680386e-16, -2.1502105345852125e-12, -2.150210534570377e-12, -1.479560894382206e-13, 1.3542408287852646e-25, -3.336783382158872e-24, 3.6047571543780944e-13, -2.1502105345852133e-12, -2.1502105345707385e-12, -3.8425183090669576e-13, -2.1502105345852133e-12, -3.3371625732467044e-24, 4.993106243470256e-14, -2.150210534585212e-12, -3.337029607948512e-24, 5.707136945141004e-14, -2.1502105345852137e-12, -3.337994839531841e-24, 6.284656750507453e-14, 1.354240826062391e-25, -3.338092631306601e-24, 5.041697679205458e-13, -2.1502105345852125e-12, -2.1502105345706444e-12, -1.298559198050207e-13, 1.3542408214722325e-25, -3.337366128454316e-24, 2.497738567863982e-13, 1.354240818266037e-25, -2.150210534570507e-12, 4.9931062434702136e-14, -2.1502105345852137e-12, -3.3378618752347304e-24, 6.998687457507856e-14, 1.354240817172713e-25, -2.1502105345705103e-12, 5.707136945139832e-14, 1.3542408255220493e-25, -2.1502105345703725e-12, 6.998687457535652e-14, 1.354240824124801e-25, -3.337512224585074e-24, -9.255930897198982e-23, 1.3542408254294557e-25, -2.1502105345703725e-12, 6.284656750495792e-14, 1.3542408248380264e-25, -3.336931818389735e-24, -2.6433389374585655e-13, 1.3542408228484067e-25, -2.1502105345706436e-12, 1.698489998103211e-13, 1.3542408268606e-25, -2.1502105345705074e-12, 1.7698930638264785e-13, 1.3542408161326644e-25, -2.1502105345703717e-12, 1.827645046932446e-13, -2.1502105345852137e-12, -2.150210534570512e-12, 6.24087705065883e-13, 1.354240829708478e-25, -3.337658321361944e-24, -9.937982657970719e-15, -2.1502105345852137e-12, -2.1502105345705062e-12, 3.6969179416345216e-13, -2.1502105345852125e-12, -3.337162574177819e-24, 1.698489998103361e-13, 1.3542408188952325e-25, -2.150210534570372e-12, 1.899048117484362e-13, -2.150210534585212e-12, -3.337029610116136e-24, 1.7698930638480223e-13, -2.1502105345852137e-12, -3.337861874511128e-24, 1.8990481175059939e-13, -2.1502105345852125e-12, -2.150210534570508e-12, 1.1991793701689967e-13, -2.1502105345852137e-12, -3.337994837443575e-24, 1.8276450469322758e-13, 1.949248796944991e-12, 2.813324511661102e-42, -3.1234242164426116e-37, 7.263176560239807e-45, 1.949248796932257e-12, 2.6597697607985984e-24, -3.1321932996565974e-37, 9.962165077361724e-24, 3.4402290402732814e-12, 0.018460348507962583, 0.018460348512059566, 15.351652345121646, 0.01846034850796259, 0.018460348512055632, -0.32087906665036625, -2.4179852035081013e-15, 9.467518067507141e-14, 53.97388474588468, 0.01846034850796259, 0.018460348512059882, 2.489503754752786e-12, -2.417911624216605e-15, 9.427144874830865e-14, -0.35358384179102664, -2.4179640587442502e-15, 9.424550322522809e-14, 14.67718943600429, -2.4179213212707664e-15, 9.4649395349465e-14, -0.995341975478319, 0.01846034850796259, 0.018460348512059903, -16.700578162562817, -2.4179919648065272e-15, 9.446035391625638e-14, -0.6744629085346009, 0.01846034850796259, 0.018460348512054414, -1.0280467513768365, 0.01846034850796259, 0.018460348512055205, 0.4584261310428296, -2.4180216406704248e-15, 9.464431427777202e-14, 0.30539327689567775, -2.4180356121380396e-15, 9.479286883182643e-14, -1.1328890395530498, 0.01846034850796259, 0.018460348512060812, -0.9798561854139958, -2.417925342841153e-15, 9.412784179276847e-14, -0.2160367762769584, 0.01846034850796257, 0.01846034851205864, -0.36906963169839413, 0.018460348507962583, 0.018460348512087672, -1.8073519483827296, -2.4179687172720783e-15, 9.427641163953986e-14, -1.654319093471862, 0.01846034850796259, 0.01846034851187497, -0.29916850253865823, 0.01846034850796259, 9.447663030961593e-14, -0.449689238406927, 0.018460348507962583, 9.437672979161121e-14, -0.20057830147148292, 0.01846034850796261, 9.454398829534417e-14, -0.4738846072210041, -2.4180023010720464e-15, 9.440017048410857e-14, -0.3752944061977079, 0.01846034850796257, 0.01846034851205745, -0.47800347147206085, -2.4179915717638447e-15, 9.410960244506178e-14, -0.1964594373215145, -2.4179755554588125e-15, 0.018460348512055535, -0.4496892384069278, 0.01846034850796261, 9.444408650120422e-14, -0.22477367015963612, -2.417963160739415e-15, 0.01846034851209096, -0.20057830147148437, -2.4179973165440563e-15, 0.018460348512053058, -0.2247736701596158, -2.417991964806486e-15, 9.446035391626872e-14, 2.489503754752843e-12, -2.4180095569656703e-15, 0.018460348512057363, -0.4738846072210059, -2.4180075150809388e-15, 9.452053846444313e-14, -0.9736314105460775, -2.418005538941128e-15, 0.018460348512057058, -1.124152146970742, -2.4179715731576763e-15, 0.018460348512059913, -0.8750412107140354, -2.4179881327549358e-15, 0.018460348512058466, -1.1483475157143053, 0.01846034850796261, 0.018460348512089785, -1.0497573151002397, -2.4180042085569666e-15, 9.481106460138135e-14, -1.152466379303405, 0.01846034850796261, 0.018460348512060604, -0.8709223463728454, 0.01846034850796257, 9.447661201394898e-14, -1.124152146970742, -2.417957360856038e-15, 0.01846034851205735, -0.8992365792270685, 0.018460348507962583, 9.437670523235079e-14, -0.8750412107140585, 0.01846034850796261, 9.444408247762732e-14, -0.8992365792270987, 0.01846034850796257, 0.01846034851206106, -0.6744629085345801, 0.01846034850796261, 9.454397447297718e-14, -1.1483475157143062, -1.1502505297259678, 1.008023301039445e-30, -9.406884542560437e-25, 1.8784316924667236e-32, -1.1502505296353887, -7.293317126671733e-11, -9.410054888598421e-25, -1.7196722304668947e-11, 8.588114450687616, -1.3906094730659724, -1.3906094730566732, -0.0259552368830407, -1.3906094730659726, -1.3906094730564973, -0.03848727446554057, 8.742451602179305e-14, -2.1502105345852133e-12, 0.01846034850796259, 68.60939052693402, -1.390609473056498, -5.964699936510955e-11, 8.74245191330205e-14, -2.1500795159333926e-12, 0.030992385998190375, 8.742452039007816e-14, -2.1501181035540133e-12, -0.03345012512235588, 8.742451695730854e-14, -2.1502491214517324e-12, -0.045982162767389215, -1.3906094730659726, -1.390609473056498, 0.010965460193830105, 8.742451864169401e-14, -2.1501643187530733e-12, -0.00749488834773842, -1.3906094730659726, -1.3906094730564984, 0.023497497751687163, -1.3906094730659726, -1.3906094730564977, 0.2074865491720047, 8.742451956380552e-14, -2.1506341873810194e-12, -0.12015836605098174, 8.742451850644256e-14, -2.1506506101351204e-12, -0.21498143755137836, -1.3906094730659726, -1.3906094730564982, 0.11266347768567544, 8.742451848139198e-14, -2.1496780277777693e-12, 0.19999166091776568, -1.3906094730659724, -1.3906094730564107, -0.12765325433452435, -1.3906094730659724, -1.3906094730564138, -0.2224763257404734, 8.742451894206026e-14, -2.149694448125147e-12, 0.10516858933342219, -1.3906094730659726, -1.3906094730566476, -0.2901128302520645, -1.3906094730659726, -2.1499388845773146e-12, -0.010222576048875404