[{"__ndarray__": [[171, 171], "float64", [68.70601531594257, -1.2939846840384708, 0.0018517515406267508, 8.460937328243572e-12, 1.6922649505487768e-11, 0.00023396833369718618, -1.2939846840574303, -1.29398468403847, 0.0005139730965069006, -1.2939846840574296, -1.293984684038471, 0.0007576481930938622, 8.460937324698728e-12, 1.6922628799331858e-11, 0.00047764327586345126, 8.460937335400676e-12, 1.6922661329356627e-11, -0.0008601352601043296, 8.460937328181687e-12, 1.69226688990711e-11, 0.0028433680655551284, -1.2939846840574298, -1.293984684038471, 0.0012255844912286288, 8.460937330274267e-12, 1.692270143102458e-11, 0.001505589316113169, 8.46093732660996e-12, 1.6922680723447567e-11, 0.0017492644978256812, -1.2939846840574303, -1.293984684038471, 0.0014692595165005217, -1.2939846840574303, -1.2939846840384452, 0.00013148107990287416, -1.2939846840574298, -1.293984684038471, 0.0009517319663741221, 8.460937330368365e-12, 1.6922665113974717e-11, 7.605921624340792e-12, -1.29398468405743, -1.2939846840384563, 0.0032652948878623468, 8.460937330578039e-12, 1.6922687115738906e-11, -0.0022736786575212734, 8.46093732359779e-12, 1.6922697980767774e-11, 3.988438411876502e-05, 8.46093733631338e-12, 1.6922632251121887e-11, 0.001943348467770444, -1.2939846840574298, -1.2939846840384566, 0.0009916162897411066, 8.460937330625351e-12, 1.6922643116033984e-11, 0.004256911215850657, -1.2939846840574296, -1.2939846840384455, -0.0012820626544554504, -1.2939846840574312, -1.293984684038471, 0.0010315005508580869, -1.29398468405743, -1.2939846840384566, 0.0004782137321312865, -1.2939846840574307, -1.2939846840384706, -0.006529552153999222, -1.29398468405743, 1.692268123717964e-11, 0.000767516352246007, 8.460937333224382e-12, -1.293984684038471, 0.0016728269663143103, -1.2939846840574305, 1.6922638194935738e-11, 0.0016728269662028652, 8.460937330822091e-12, -1.293984684038457, 0.0002241001312229987, 8.460937327506968e-12, -1.293984684038485, 0.0007675163522463915, -1.293984684057431, 1.6922648991153522e-11, 0.000224100131112243, -1.2939846840574303, 1.6922692032113392e-11, -0.000681210596955458, 8.460937328810784e-12, 1.6922690754652974e-11, 0.0033071541454741606, -1.2939846840574307, -1.2939846840385314, -0.002315537835247107, 8.460937331064033e-12, 1.6922693873369556e-11, 0.0005134026563584494, 8.460937325327264e-12, -1.293984684038471, -0.0006812105969301651, 8.460937330368365e-12, -1.2939846840384708, 7.605921624340826e-12, 8.460937330178202e-12, 1.6922696626236044e-11, 0.007521168587663321, -1.2939846840574307, 1.692266511397472e-11, 7.60592162434079e-12, 8.460937328532255e-12, 1.6922636355240848e-11, 0.0014698299995748723, 8.460937331799838e-12, 1.692263360337402e-11, -0.005537936159151262, 8.460937330607094e-12, -1.293984684038471, 0.0017591327236110925, -1.2939846840574305, 1.692263819806272e-11, 0.0026644432756541565, 8.460937334798518e-12, -1.293984684038471, 0.002664443275657996, -1.2939846840574307, 1.6922648989559044e-11, 0.0012157164026454425, -1.2939846840574307, 1.6922681238714397e-11, 0.0017591327233975388, 8.460937329008053e-12, -1.293984684038457, 0.0012157164026480893, 8.460937332269584e-12, -1.2939846840384708, 0.0003104057631687462, -1.2939846840574307, -1.2939846840384326, 0.004298770660879133, 8.460937329589912e-12, 1.6922639475235444e-11, -0.00132392154163272, -1.2939846840574298, -1.2939846840384714, 0.0015050191289980165, -1.29398468405743, 1.6922692032848487e-11, 0.0003104057631694375, -1.2939846840574305, 1.692266511397473e-11, 0.0009916162898486835, -1.2939846840574305, -1.2939846840384708, 0.00851278483310632, 8.46093733036836e-12, -1.2939846840384572, 0.000991616289738843, -0.05008660095149887, -2.1136860606189798e-18, 5.548176278859943e-26, 5.59022093593039e-19, -0.050086600947418264, -2.8323593672834266e-13, 5.495186864260789e-26, 1.7095454058188154e-12, -0.019690070831492663, -1.2939846840384708, 68.70601531598048, 0.0018517514668959355, 8.460937312211905e-12, 1.692264947321182e-11, 0.00023396844033756522, -1.293984684038471, -1.2939846840195115, 0.0005139733305391811, -1.2939846840384706, -1.2939846840195128, 0.0007576480809152801, 8.460937308667058e-12, 1.692262876705596e-11, 0.0004776430362929754, 8.460937319369007e-12, 1.6922661297080647e-11, -0.0008601351919116981, 8.460937312150019e-12, 1.692266886679515e-11, 0.0028433679862861112, -1.2939846840384706, -1.2939846840195126, 0.0012255845923308001, 8.460937314242597e-12, 1.6922701398748547e-11, 0.0015055895446072364, 8.460937310578292e-12, 1.692268069117159e-11, 0.0017492643801088757, -1.293984684038471, -1.2939846840195128, 0.0014692592713918093, -1.293984684038471, -1.293984684019487, 0.00013148114255726279, -1.2939846840384706, -1.2939846840195126, 0.0009517315886573867, 8.460937314336697e-12, 1.6922665081698754e-11, 7.605921561818226e-12, -1.2939846840384708, -1.293984684019498, 0.003265294624541286, 8.46093731454637e-12, 1.6922687083462865e-11, -0.002273678399738432, 8.460937307566121e-12, 1.6922697948491726e-11, 3.988475629732296e-05, 8.460937320281713e-12, 1.6922632218846007e-11, 0.0019433480845154646, -1.2939846840384706, -1.2939846840194984, 0.0009916162842028946, 8.460937314593683e-12, 1.6922643083758094e-11, 0.004256910946991376, -1.2939846840384703, -1.293984684019487, -0.0012820624022107981, -1.293984684038472, -1.2939846840195126, 0.0010315009174984196, -1.2939846840384708, -1.2939846840194982, 0.0004782140108077538, -1.2939846840384717, -1.2939846840195124, -0.0065295519280322584, -1.2939846840384708, 1.6922681204903644e-11, 0.0007675163090786669, 8.460937317192715e-12, -1.2939846840195126, 0.0016728269011687677, -1.2939846840384712, 1.692263816265982e-11, 0.0016728269010573087, 8.460937314790423e-12, -1.2939846840194986, 0.00022410016885212323, 8.460937311475298e-12, -1.2939846840195268, 0.000767516309079069, -1.2939846840384719, 1.6922648958877597e-11, 0.0002241001687413607, -1.293984684038471, 1.692269199983738e-11, -0.0006812105373481274, 8.460937312779115e-12, 1.6922690722376942e-11, 0.0033071537286290227, -1.2939846840384717, -1.2939846840195728, -0.002315537423940198, 8.460937315032367e-12, 1.6922693841093485e-11, 0.0005134023721437694, 8.460937309295596e-12, -1.2939846840195128, -0.0006812105373228185, 8.460937314336697e-12, -1.2939846840195124, 7.605921561818262e-12, 8.460937314146535e-12, 1.6922696593960012e-11, 0.007521168356158112, -1.2939846840384717, 1.6922665081698757e-11, 7.60592156181822e-12, 8.460937312500588e-12, 1.6922636322964997e-11, 0.00146983027271313, 8.46093731576817e-12, 1.692263357109813e-11, -0.005537935938722441, 8.46093731457542e-12, -1.2939846840195126, 0.0017591326749055451, -1.2939846840384714, 1.6922638165786807e-11, 0.0026644432049704172, 8.460937318766853e-12, -1.2939846840195126, 0.0026644432049742544, -1.2939846840384717, 1.692264895728312e-11, 0.0012157164347363562, -1.2939846840384717, 1.692268120643839e-11, 0.0017591326746919953, 8.460937312976385e-12, -1.2939846840194986, 0.0012157164347390134, 8.460937316237915e-12, -1.2939846840195126, 0.0003104058172378526, -1.2939846840384717, -1.2939846840194733, 0.004298770238495825, 8.460937313558244e-12, 1.6922639442959544e-11, -0.0013239211358640314, -1.2939846840384706, -1.2939846840195128, 0.0015050188392451858, -1.2939846840384712, 1.692269200057248e-11, 0.0003104058172385642, -1.2939846840384712, 1.6922665081698766e-11, 0.0009916162843104724, -1.2939846840384714, -1.2939846840195126, 0.008512784596062877, 8.460937314336693e-12, -1.2939846840194988, 0.000991616284200631, -0.05008660053989376, -2.1136860463069614e-18, 5.548176267715854e-26, 5.590220837368684e-19, -0.05008660053581325, -2.832359422761412e-13, 5.495186854124546e-26, 1.7095453952105145e-12, -0.019690075074198066, 0.0018517515406267508, 0.0018517514668959355, 55.84625884204747, -1.9408810730463556e-12, -4.403939331515289e-12, -2.5240482736726486, 0.0018517515406267686, 0.0018517514668957968, -0.059307419959865215, 0.0018517515406266485, 0.0018517514668954622, 1.9672936105022436, -1.9408810548605063e-12, -4.403911415112696e-12, -0.4974472433116602, -1.9408810859574297e-12, -4.403974132444648e-12, 13.596986494838044, -1.9408810569750134e-12, -4.4039533412010625e-12, -14.710495821200604, 0.001851751540626744, 0.001851751466895939, -3.08080293704538, -1.940881051556463e-12, -4.404016062711384e-12, -0.6160620832211782, -1.9408810571341815e-12, -4.40398815619731e-12, 1.4105389474909877, 0.0018517515406267211, 0.0018517514668954446, -1.0542019063707884, 0.0018517515406269694, 0.0018517514668447473, 13.04023183233337, 0.0018517515406266793, 0.001851751466896116, -2.240333387341133, -1.940881064316769e-12, -4.403963735345241e-12, -8.248142563698358e-12, 0.0018517515406267248, 0.0018517514668869005, -1.3232913167258453, -1.9408810648696325e-12, -4.4039810736356575e-12, 0.7665366538067822, -1.9408810480163764e-12, -4.40399103357264e-12, 1.683578724279824, -1.940881063368106e-12, -4.4039364411181626e-12, -2.7970880503101396, 0.0018517515406266667, 0.0018517514668865338, -0.5567546630284959, -1.9408810638594644e-12, -4.403946407928633e-12, -1.8800459802123988, 0.0018517515406266147, 0.0018517514668448325, 0.20978199069327907, 0.0018517515406272346, 0.0018517514668960448, 1.1268240614332456, 0.001851751540626804, 0.0018517514668871552, 0.010449392980249439, 0.0018517515406270627, 0.0018517514668958512, -0.7921931107552294, 0.0018517515406268103, -4.403947575848972e-12, -0.4298445203112845, -1.9408810703574617e-12, 0.0018517514668960774, 2.6535139580563305, 0.0018517515406269388, -4.403944479794404e-12, 2.6535139580564056, -1.9408810631301888e-12, 0.0018517514668871648, -0.12691014299861872, -1.9408810532905696e-12, 0.0018517514669049683, -0.4298445203112835, 0.0018517515406271654, -4.403979888798718e-12, -0.1269101429985485, 0.0018517515406268783, -4.403982995060899e-12, -3.2102686208162914, -1.9408810625480814e-12, -4.403975219729559e-12, 0.3050763097288599, 0.0018517515406270865, 0.0018517514669609068, -0.8618309728519546, -1.9408810654906714e-12, -4.403970594992042e-12, -0.5672040560556214, -1.940881052574017e-12, 0.0018517514668957165, -3.210268620816308, -1.9408810643167696e-12, 0.0018517514668959895, -8.248142563698372e-12, -1.9408810639904784e-12, -4.403976760276714e-12, 0.2354384478694952, 0.0018517515406270973, -4.4039637353452404e-12, -8.248142563698356e-12, -1.940881062391135e-12, -4.4039568762237955e-12, -0.5463052704309962, -1.9408810713693023e-12, -4.403950713272625e-12, -1.348947773972207, -1.940881065438372e-12, 0.0018517514668961112, -0.9865991835249928, 0.0018517515406270282, -4.4039444799688696e-12, 2.096759295201897, -1.9408810681597837e-12, 0.0018517514668960878, 2.0967592952018945, 0.001851751540627054, -4.4039798910982465e-12, -0.6836648059743732, 0.0018517515406270887, -4.4039475814199756e-12, -0.9865991835248482, -1.9408810603386016e-12, 0.0018517514668872123, -0.6836648059743746, -1.940881068040252e-12, 0.0018517514668960323, -3.7670232841728253, 0.0018517515406270605, 0.0018517514668363252, -0.25167835285123197, -1.940881064341156e-12, -4.403952254295125e-12, -1.4185856354401727, 0.0018517515406269345, 0.0018517514668962571, -1.123958718986693, 0.001851751540627038, -4.403982992434027e-12, -3.767023284172826, 0.0018517515406269915, -4.4039637353452485e-12, -0.5567546630285681, 0.0018517515406270189, 0.0018517514668956125, -0.3213162151127206, -1.9408810643167692e-12, 0.0018517514668868911, -0.5567546630284929, 4.683966543895055, 4.3822113042904945e-18, -2.801311042665894e-25, -1.5085416998233007e-18, 4.6839665439410245, -1.230692755119479e-11, -2.7197260359992435e-25, -1.6637373260486338e-11, -9.63635496209355, 8.460937328243572e-12, 8.460937312211905e-12, -1.9408810730463556e-12, 70.0, -1.2930077621318867e-20, 1.0436541632717998e-12, 8.460937328243572e-12, 8.460937312211545e-12, 3.698910831405602e-12, 8.460937328243304e-12, 8.460937312211833e-12, -3.3768365042797178e-12, -6.4779021909510706e-21, -1.2930057848635319e-20, -6.032093046821011e-12, -6.477902199140103e-21, -1.2930085417166591e-20, -3.923010741392429e-13, -6.477902194083146e-21, -1.2930078720760339e-20, -4.274063366170691e-12, 8.460937328243567e-12, 8.460937312211993e-12, -1.2895278617214906e-12, -6.4779021955301534e-21, -1.2930106289573486e-20, 1.3657287704219234e-12, -6.477902192897535e-21, -1.2930086517168715e-20, -5.710018633196204e-12, 8.460937328243558e-12, 8.460937312212073e-12, -8.365275120098564e-12, 8.46093732824411e-12, 8.460937312171017e-12, -2.7254832176667378e-12, 8.460937328243391e-12, 8.46093731221237e-12, 1.5554218595365129e-12, -6.477902195967901e-21, -1.2930082068976734e-20, -2.496725489264226e-20, 8.460937328243564e-12, 8.460937312188182e-12, 4.275449987139632e-12, -6.4779021963009956e-21, -1.2930106705267893e-20, -6.608632086877812e-12, -6.477902190848106e-21, -1.293011077124167e-20, -3.8886040514219826e-12, -6.4779022008166174e-21, -1.2930053369727782e-20, -7.777604080895848e-13, 8.460937328243391e-12, 8.460937312188647e-12, -2.3331821345768196e-12, -6.47790219606645e-21, -1.29300574357399e-20, 1.9422678407004607e-12, 8.460937328243215e-12, 8.460937312171606e-12, -8.941813995334884e-12, 8.460937328244839e-12, 8.46093731221225e-12, -6.221786070271173e-12, 8.460937328243748e-12, 8.460937312188925e-12, -1.4103451869459893e-12, 8.460937328244393e-12, 8.460937312211731e-12, -8.59373247661965e-12, 8.46093732824375e-12, -1.293009687807761e-20, 2.152052689781149e-12, -6.477902198165877e-21, 8.460937312212356e-12, 1.119240678511279e-12, 8.460937328244209e-12, -1.2930063906037337e-20, 1.1192406786987116e-12, -6.477902196284466e-21, 8.460937312189074e-12, -4.485234983104676e-12, -6.4779021938935786e-21, 8.460937312235519e-12, 2.1520526897805465e-12, 8.460937328244661e-12, -1.293006726048244e-20, -4.485234982918828e-12, 8.460937328244031e-12, -1.2930100230733263e-20, -3.452422893467004e-12, -6.477902194581577e-21, -1.2930108382029937e-20, -1.8774271270679672e-12, 8.460937328244478e-12, 8.460937312456588e-12, -4.557550329678888e-13, -6.477902196474409e-21, -1.293012348255941e-20, -9.228370353972084e-13, -6.4779021921234346e-21, 8.460937312212718e-12, -3.4524228935101473e-12, -6.477902195967901e-21, 8.460937312212178e-12, -2.4967254892642294e-20, -6.477902195916152e-21, -1.293010768132543e-20, 6.260550209230454e-12, 8.46093732824448e-12, -1.2930082068976735e-20, -2.496725489264226e-20, -6.4779021945166275e-21, -1.2930040655913029e-20, -3.743527288316713e-12, -6.4779021969347205e-21, -1.2930056458005281e-20, -1.0926914367007181e-11, -6.47790219589526e-21, 8.460937312212429e-12, -1.8112949361528221e-13, 8.4609373282443e-12, -1.2930063908897305e-20, -1.2139414568100124e-12, -6.477902199233013e-21, 8.46093731221236e-12, -1.21394145681562e-12, 8.460937328244391e-12, -1.2930067259076232e-20, -6.8184170719538786e-12, 8.460937328244482e-12, -1.2930096878986869e-20, -1.811294932523533e-13, -6.477902194992156e-21, 8.460937312188937e-12, -6.818417071958277e-12, -6.47790219740895e-21, 8.460937312212275e-12, -5.785605072172994e-12, 8.460937328244391e-12, 8.46093731214922e-12, -4.210609394677098e-12, -6.4779021952507386e-21, -1.2930055757408463e-20, -2.788937156110457e-12, 8.460937328244118e-12, 8.460937312212847e-12, -3.2560192747237092e-12, 8.460937328244385e-12, -1.2930100231846156e-20, -5.7856050721732375e-12, 8.460937328244212e-12, -1.2930082068976744e-20, -2.3331821347554418e-12, 8.460937328244302e-12, 8.460937312212587e-12, 3.9273681318609056e-12, -6.477902195967897e-21, 8.460937312189541e-12, -2.3331821345689412e-12, -1.0711435746935113e-12, 7.399658743899641e-27, -1.171218273460523e-34, -1.8152435523725496e-27, -1.071143577775814e-12, -1.4935944836155435e-23, -1.166175672987435e-34, -1.6086836264942928e-21, 5.15254260082393e-11, 1.6922649505487768e-11, 1.692264947321182e-11, -4.403939331515289e-12, -1.2930077621318867e-20, 70.0, 1.639015170184651e-12, 1.6922649505487768e-11, 1.69226494732111e-11, 7.448490104903121e-12, 1.6922649505487225e-11, 1.6922649473211678e-11, -6.3203847546735726e-12, -1.2930077614423149e-20, -2.590227419560149e-20, -1.2129859439038841e-11, -1.2930077630905964e-20, -2.5902329553765288e-20, -2.774298639355052e-13, -1.2930077620742594e-20, -2.590231611709714e-20, -9.085308820889277e-12, 1.6922649505487758e-11, 1.6922649473211994e-11, -3.0423537788053887e-12, -1.2930077623728186e-20, -2.5902371475833806e-20, 2.767121083039724e-12, -1.2930077618389407e-20, -2.5902331750517133e-20, -1.1001753911786059e-11, 1.6922649505487735e-11, 1.692264947321215e-11, -1.681122848470253e-11, 1.692264950548885e-11, 1.6922649473129712e-11, -4.958799055350432e-12, 1.6922649505487402e-11, 1.6922649473212754e-11, 3.6608701683538e-12, -1.2930077624543211e-20, -2.5902322835464665e-20, -5.006955018737909e-20, 1.692264950548775e-11, 1.692264947316416e-11, 9.061283235215523e-12, -1.293007762522119e-20, -2.5902372351905514e-20, -1.3742652337618733e-11, -1.2930077614298568e-20, -2.59023805083169e-20, -8.34223945469061e-12, -1.2930077634359922e-20, -2.5902265168659525e-20, -1.0204992677744981e-12, 1.6922649505487402e-11, 1.6922649473165094e-11, -4.681369170858123e-12, -1.2930077624749904e-20, -2.590227332519664e-20, 4.379914040738777e-12, 1.6922649505487047e-11, 1.69226494731309e-11, -1.8424021056549134e-11, 1.6922649505490314e-11, 1.692264947321251e-11, -1.3023608394471577e-11, 1.6922649505488116e-11, 1.692264947316565e-11, -2.832380442243074e-12, 1.692264950548942e-11, 1.6922649473211474e-11, -1.7025320061376354e-11, 1.692264950548812e-11, -2.5902352616533918e-20, 4.2583389058081456e-12, -1.293007762898744e-20, 1.692264947321272e-11, 2.5395257264584884e-12, 1.6922649505489044e-11, -2.590228633738654e-20, 2.5395257268350393e-12, -1.2930077625181068e-20, 1.692264947316595e-11, -8.939708393396777e-12, -1.2930077620377534e-20, 1.6922649473259263e-11, 4.258338905806946e-12, 1.6922649505489955e-11, -2.5902293055636337e-20, -8.939708393023383e-12, 1.692264950548869e-11, -2.5902359331125266e-20, -7.220895057540927e-12, -1.2930077621753945e-20, -2.5902375713193096e-20, -2.4120544903285507e-12, 1.6922649505489587e-11, 1.6922649473702354e-11, -2.2693147313309593e-12, -1.2930077625557056e-20, -2.5902405998104022e-20, -1.8489889042229977e-12, -1.2930077616789518e-20, 1.6922649473213458e-11, -7.220895057627599e-12, -1.2930077624543211e-20, 1.692264947321237e-11, -5.0069550187379163e-20, -1.2930077624434841e-20, -2.590237432011954e-20, 1.2343950622874037e-11, 1.692264950548959e-11, -2.590232283546467e-20, -5.006955018737909e-20, -1.2930077621629944e-20, -2.590223967387211e-20, -7.513749546060273e-12, -1.2930077626484613e-20, -2.5902271353594668e-20, -2.170668873897129e-11, -1.2930077624374295e-20, 1.6922649473212873e-11, -4.230303622852528e-13, 1.692264950548923e-11, -2.5902286343157285e-20, -2.141843446040059e-12, -1.2930077631075643e-20, 1.6922649473212728e-11, -2.1418434460513177e-12, 1.6922649505489412e-11, -2.5902293052796514e-20, -1.3621077472554618e-11, 1.6922649505489593e-11, -2.5902352618365944e-20, -4.230303615561149e-13, -1.2930077622580154e-20, 1.6922649473165675e-11, -1.3621077472563447e-11, -1.293007762743329e-20, 1.6922649473212563e-11, -1.190226431659494e-11, 1.6922649505489412e-11, 1.692264947308592e-11, -7.093423926479579e-12, -1.2930077623101646e-20, -2.5902269960690015e-20, -6.950683882118601e-12, 1.692264950548886e-11, 1.6922649473213713e-11, -6.5303582857032525e-12, 1.6922649505489396e-11, -2.590235933340201e-20, -1.1902264316595428e-11, 1.692264950548905e-11, -2.5902322835464683e-20, -4.681369171217003e-12, 1.6922649505489228e-11, 1.6922649473213187e-11, 7.662581566682966e-12, -1.2930077624543203e-20, 1.6922649473166884e-11, -4.681369170842321e-12, -1.6627535765809663e-12, 1.4826074280911967e-26, -2.363352676981876e-34, -3.6381181248721826e-27, -1.6627535828025988e-12, 8.974294132825669e-23, -2.3533201420672704e-34, -3.1735571387636807e-21, 1.0448685648318922e-10, 0.00023396833369718618, 0.00023396844033756522, -2.5240482736726486, 1.0436541632717998e-12, 1.639015170184651e-12, 59.91581522730304, 0.00023396833369719486, 0.00023396844033761314, 4.990545563561899, 0.00023396833369721242, 0.00023396844033761357, 9.528566906318503, 1.0436542551768848e-12, 1.6389674297852245e-12, -5.546163429717539, 1.0436541971784868e-12, 1.6390041306820564e-12, 1.9684304072026695, 1.0436542610229928e-12, 1.6389446811851398e-12, -3.079666139934116, 0.0002339683336971606, 0.00023396844033754375, -10.639802638675768, 1.0436543684582353e-12, 1.6389813991174584e-12, 4.434927697154759, 1.0436543034899355e-12, 1.6389335520915235e-12, 8.9729490397882, 0.0002339683336971812, 0.0002339684403385952, -6.101781296592982, 0.00023396833369714693, 0.00023396844025660784, 1.4128125401609313, 0.00023396833369720028, 0.00023396844033753573, 3.9446368602171225, 1.0436542773766655e-12, 1.6389744102303634e-12, 3.5147708153422686e-12, 0.00023396833369718575, 0.00023396844033918068, 0.88669782268937, 1.0436542875086549e-12, 1.6389349784336548e-12, -1.442315689284574, 1.0436543269120797e-12, 1.6390014061925542e-12, -4.500254726809173, 1.0436543509867756e-12, 1.6389474194401145e-12, 3.3890189936882904, 0.00023396833369720938, 0.00023396844033912018, -0.5556178665758122, 1.043654277374026e-12, 1.639013820355713e-12, 0.3310799570786229, 0.00023396833369722153, 0.00023396844025749602, -1.9979335561145348, 0.00023396833369704762, 0.0002339684403375301, -5.055872593835071, 0.0002339683336971582, 0.00023396844033908332, -0.6064856258794441, 0.00023396833369710595, 0.00023396844033757064, -0.39944801428935794, 0.00023396833369714303, 1.6388786463568676e-12, 0.7957411639037508, 1.0436542809233785e-12, 0.00023396844033751318, -1.9162873631770467, 0.00023396833369707408, 1.6389962602709099e-12, -1.9162873631770614, 1.0436542665053563e-12, 0.0002339684403390573, -1.351359030135495, 1.0436542941575486e-12, 0.000233968440335989, 0.7957411639037524, 0.00023396833369706454, 1.6390702275877404e-12, -1.3513590301354999, 0.00023396833369709663, 1.6389524928163474e-12, 1.3606694963554335, 1.043654250400199e-12, 1.6389776994430944e-12, -1.8706659066879647, 0.00023396833369707516, 0.00023396844028258836, 1.3150480401601667, 1.0436542771958708e-12, 1.638956999756058e-12, 0.05086775942512256, 1.0436542699470654e-12, 0.0002339684403385063, 1.360669496355437, 1.0436542773766623e-12, 0.00023396844033749084, 3.5147708153423162e-12, 1.0436542781189547e-12, 1.6389884384352024e-12, -0.1561698522037479, 0.00023396833369707603, 1.6389744102303626e-12, 3.514770815342267e-12, 1.0436542656162448e-12, 1.6389918269394505e-12, -1.1621034921062399, 1.0436542591557027e-12, 1.6389603905270274e-12, -0.9550658807008239, 1.0436542448805523e-12, 0.00023396844033752597, 0.2401232978581686, 0.00023396833369709663, 1.638996327695009e-12, -2.4719052301791034, 1.043654279123653e-12, 0.00023396844033751253, -2.4719052301791016, 0.0002339683336970988, 1.6390701882391666e-12, -1.9069768970415004, 0.00023396833369706627, 1.638878608474639e-12, 0.24012329785814301, 1.0436542789329196e-12, 0.00023396844033805983, -1.9069768970415, 1.0436542743325397e-12, 0.00023396844033749778, 0.8050516304605102, 0.00023396833369708665, 0.0002339684402579503, -2.4262837739253884, 1.0436542481832324e-12, 1.6389711231777107e-12, 0.7594301731742892, 0.00023396833369708492, 0.00023396844033744422, -0.504750107100651, 0.0002339683336970563, 1.63895256746134e-12, 0.8050516304605102, 0.00023396833369710422, 1.6389744102303787e-12, -0.5556178665758001, 0.0002339683336970886, 0.0002339684403385115, -0.7117877189768953, 1.043654277376658e-12, 0.00023396844033903475, -0.5556178665758134, -2.605352153949334, -3.18512358358753e-18, -4.701748504558752e-25, 1.9005869699257464e-18, -2.6053521539784015, 2.7475254911476503e-12, -4.838245068788768e-25, 4.973767448096981e-12, 7.2447260650110765, -1.2939846840574303, -1.293984684038471, 0.0018517515406267686, 8.460937328243572e-12, 1.6922649505487768e-11, 0.00023396833369719486, 68.70601531594257, -1.2939846840384703, 0.000513973096506908, -1.2939846840574298, -1.2939846840384712, 0.0007576481930938604, 8.46093732469873e-12, 1.6922628799331855e-11, 0.0004776432758634287, 8.460937335400676e-12, 1.692266132935663e-11, -0.0008601352601043109, 8.460937328181689e-12, 1.69226688990711e-11, 0.0028433680655551513, -1.29398468405743, -1.2939846840384712, 0.0012255844912286201, 8.460937330274267e-12, 1.692270143102458e-11, 0.001505589316113194, 8.460937326609958e-12, 1.6922680723447567e-11, 0.0017492644978256413, -1.2939846840574305, -1.2939846840384712, 0.0014692595165004853, -1.2939846840574307, -1.2939846840384452, 0.00013148107990286527, -1.29398468405743, -1.293984684038471, 0.0009517319663741195, 8.460937330368365e-12, 1.692266511397472e-11, 7.605921624340786e-12, -1.2939846840574303, -1.2939846840384566, 0.003265294887862369, 8.460937330578037e-12, 1.69226871157389e-11, -0.0022736786575212817, 8.460937323597788e-12, 1.692269798076777e-11, 3.988438411877109e-05, 8.46093733631338e-12, 1.6922632251121887e-11, 0.0019433484677705208, -1.29398468405743, -1.2939846840384568, 0.0009916162897411064, 8.460937330625353e-12, 1.6922643116033987e-11, 0.004256911215850703, -1.2939846840574298, -1.2939846840384457, -0.0012820626544554447, -1.2939846840574312, -1.2939846840384712, 0.001031500550858079, -1.2939846840574303, -1.2939846840384568, 0.0004782137321312414, -1.2939846840574307, -1.2939846840384708, -0.006529552153999232, -1.2939846840574303, 1.6922681237179644e-11, 0.0007675163522460128, 8.460937333224382e-12, -1.293984684038471, 0.001672826966314305, -1.2939846840574305, 1.6922638194935738e-11, 0.0016728269662028591, 8.460937330822091e-12, -1.2939846840384572, 0.00022410013122299967, 8.460937327506966e-12, -1.293984684038485, 0.0007675163522464043, -1.293984684057431, 1.6922648991153522e-11, 0.00022410013111222684, -1.2939846840574303, 1.6922692032113395e-11, -0.0006812105969554774, 8.460937328810782e-12, 1.6922690754652977e-11, 0.003307154145474132, -1.2939846840574307, -1.2939846840385318, -0.00231553783524712, 8.460937331064032e-12, 1.692269387336956e-11, 0.0005134026563584984, 8.460937325327264e-12, -1.2939846840384712, -0.0006812105969301608, 8.460937330368365e-12, -1.2939846840384708, 7.60592162434082e-12, 8.460937330178202e-12, 1.692269662623604e-11, 0.0075211685876632895, -1.2939846840574307, 1.692266511397472e-11, 7.605921624340783e-12, 8.460937328532256e-12, 1.6922636355240848e-11, 0.001469829999574933, 8.46093733179984e-12, 1.6922633603374024e-11, -0.00553793615915127, 8.460937330607094e-12, -1.293984684038471, 0.0017591327236111051, -1.2939846840574305, 1.692263819806272e-11, 0.0026644432756541383, 8.46093733479852e-12, -1.293984684038471, 0.002664443275657992, -1.2939846840574307, 1.6922648989559047e-11, 0.0012157164026454226, -1.2939846840574307, 1.69226812387144e-11, 0.0017591327233975552, 8.460937329008055e-12, -1.2939846840384572, 0.0012157164026481422, 8.460937332269583e-12, -1.2939846840384708, 0.0003104057631687254, -1.2939846840574307, -1.293984684038433, 0.0042987706608791, 8.460937329589912e-12, 1.692263947523544e-11, -0.0013239215416327478, -1.2939846840574303, -1.2939846840384719, 0.001505019128998065, -1.2939846840574307, 1.6922692032848494e-11, 0.00031040576316941615, -1.2939846840574305, 1.692266511397473e-11, 0.0009916162898486764, -1.2939846840574305, -1.293984684038471, 0.008512784833106333, 8.46093733036836e-12, -1.2939846840384577, 0.0009916162897388434, -0.05008660095149881, -2.1136860606189813e-18, 5.548176278859908e-26, 5.590220935930393e-19, -0.05008660094741814, -2.832359367283438e-13, 5.495186864260771e-26, 1.7095454058188148e-12, -0.019690070831492594, -1.29398468403847, -1.2939846840195115, 0.0018517514668957968, 8.460937312211545e-12, 1.69226494732111e-11, 0.00023396844033761314, -1.2939846840384703, 68.70601531598048, 0.000513973330539385, -1.2939846840384697, -1.293984684019512, 0.0007576480809151106, 8.460937308666701e-12, 1.6922628767055238e-11, 0.00047764303629262497, 8.460937319368648e-12, 1.692266129707993e-11, -0.0008601351919116883, 8.460937312149663e-12, 1.6922668866794428e-11, 0.0028433679862858467, -1.29398468403847, -1.2939846840195117, 0.0012255845923307264, 8.460937314242238e-12, 1.6922701398747833e-11, 0.0015055895446073001, 8.460937310577931e-12, 1.6922680691170872e-11, 0.0017492643801086051, -1.2939846840384703, -1.2939846840195117, 0.0014692592713913544, -1.2939846840384706, -1.2939846840194862, 0.00013148114255717757, -1.2939846840384697, -1.2939846840195117, 0.0009517315886574526, 8.46093731433634e-12, 1.6922665081698033e-11, 7.605921561816834e-12, -1.29398468403847, -1.2939846840194973, 0.0032652946245415202, 8.460937314546012e-12, 1.6922687083462147e-11, -0.0022736783997387607, 8.460937307565763e-12, 1.692269794849101e-11, 3.988475629705321e-05, 8.460937320281354e-12, 1.692263221884529e-11, 0.001943348084515514, -1.2939846840384697, -1.2939846840194977, 0.0009916162842027695, 8.460937314593326e-12, 1.6922643083757374e-11, 0.004256910946991524, -1.2939846840384694, -1.2939846840194866, -0.0012820624022113073, -1.2939846840384712, -1.293984684019512, 0.0010315009174980778, -1.2939846840384701, -1.2939846840194975, 0.00047821401080768875, -1.2939846840384706, -1.2939846840195115, -0.006529551928032654, -1.2939846840384701, 1.692268120490292e-11, 0.0007675163090787898, 8.460937317192357e-12, -1.2939846840195117, 0.0016728269011688566, -1.2939846840384703, 1.69226381626591e-11, 0.0016728269010574074, 8.460937314790064e-12, -1.293984684019498, 0.00022410016885187527, 8.460937311474938e-12, -1.2939846840195262, 0.0007675163090791709, -1.293984684038471, 1.6922648958876876e-11, 0.00022410016874111957, -1.2939846840384701, 1.6922691999836656e-11, -0.000681210537348333, 8.460937312778758e-12, 1.692269072237622e-11, 0.003307153728628989, -1.2939846840384706, -1.2939846840195721, -0.002315537423940311, 8.460937315032006e-12, 1.6922693841092765e-11, 0.0005134023721437612, 8.460937309295238e-12, -1.2939846840195124, -0.0006812105373230439, 8.460937314336338e-12, -1.2939846840195115, 7.605921561816871e-12, 8.460937314146177e-12, 1.692269659395929e-11, 0.007521168356158421, -1.2939846840384706, 1.692266508169804e-11, 7.60592156181683e-12, 8.46093731250023e-12, 1.692