[{"__ndarray__": [[60, 60], "float64", [70.0, 4.233058054119355e-27, 5.903137566963147e-15, -5.017215756163098e-27, 5.55304375031289e-27, -5.903137567628615e-15, -2.6403545840498096e-27, 2.9385728100364617e-27, -1.2276543485345981e-14, -6.187553599485974e-27, 6.848068079247039e-27, 1.2276543488436831e-14, -2.9695162093953636e-27, -3.5905359032013873e-25, 2.0294461416472162e-24, -7.383308436997215e-27, -3.533853715921515e-25, 2.3351618474127014e-24, -8.20394645533633e-27, 9.09546445325034e-27, 3.994152228983769e-15, -6.232474956775581e-28, 6.907487363647733e-28, -3.994152231096296e-15, -6.898008501338465e-27, 7.697083819682247e-27, 4.078994910378279e-14, -1.9297720386015984e-27, 2.0896775667364922e-27, -4.078994910636875e-14, -6.166703943790626e-27, -3.5920766783885096e-25, -4.633864443168301e-15, 2.8827096271777475e-25, 6.138548671668627e-25, -4.633864437051604e-15, 4.769486981063865e-26, 6.116893138867236e-25, 4.633864452820825e-15, -4.1847854295168584e-27, -3.5905420429970884e-25, 4.633864446700322e-15, -7.716846278266941e-41, 1.185570970657614e-40, 1.0983046135251079e-39, -7.562129484733552e-27, 8.385678010844634e-27, -6.2583804687547614e-15, -1.264521040615566e-27, 1.4004173940648264e-27, 6.25838046922782e-15, -4.320949739947213e-13, -2.8449788185322122e-25, 8.448349101288439e-26, 1.542818405932698e-25, -4.320949739944392e-13, -5.433730777547996e-25, -1.4472236473747785e-24, -1.2794998407402266e-25, -1.1862231830367543e-12, 4.233058054119355e-27, 70.0, -3.6431356019292014e-15, 5.566079857391707e-27, -6.277410432463131e-27, 3.643135600603264e-15, 2.9297514182978053e-27, -3.321472099711655e-27, 1.3833443699954342e-14, 6.86985275246553e-27, -7.740591005971826e-27, -1.3833443700821947e-14, 3.456263712448155e-27, -4.26365457428239e-26, -3.0535976097339908e-25, 8.35579547187966e-27, -4.9206961834652944e-26, -1.191197415614046e-24, 9.099634519447883e-27, -1.0280785649691248e-26, -1.0983447255808855e-14, 6.994393207784805e-28, -7.808926375582064e-28, 1.0983447253193142e-14, 7.65208196928683e-27, -8.699577159996367e-27, -4.915151058121096e-14, 2.147162224923891e-27, -2.3616504376932004e-27, 4.9151510579491835e-14, 7.007895337644709e-27, -4.2496154281521244e-26, 5.5010006362080055e-15, 1.8638436908048525e-26, 4.663380036135244e-26, 5.5010006357274685e-15, 4.4109397119724356e-26, 4.908043765343597e-26, -5.501000637961251e-15, 4.803102470268737e-27, -4.2635932423018614e-26, -5.501000637488945e-15, -7.571386758415913e-43, 4.292413622630113e-42, -8.625161272886472e-41, 8.40195100705468e-27, -9.478383833303972e-27, 1.1077988880183974e-14, 1.3965923397353386e-27, -1.5829370243252977e-27, -1.1077988882243536e-14, 3.2411044005041575e-13, -2.721251984744656e-26, -2.4919479389885017e-26, 4.6009504349422023e-26, 3.241104400504913e-13, 7.137502557761903e-28, 1.716264084963119e-25, 1.0292849531734482e-26, 1.3537565809207158e-12, 5.903137566963147e-15, -3.6431356019292014e-15, 57.134596208382845, 3.955959313732235e-15, -4.834393520303182e-15, 12.865403791821748, 1.6123430937337654e-15, -2.5772165869634514e-15, 6.376006683224413, 8.211310152485285e-15, -5.863202533070297e-15, -6.3760066828577875, 9.924755279534348e-16, -3.6148023213953537e-12, 4.08541848733664e-11, 5.9113283618871226e-15, -3.617074084712323e-12, 1.02630211942002e-10, 7.435123812716933e-15, -7.89834974269602e-15, -2.054024662303253, 2.3946549632708203e-15, -5.323683971405015e-16, 2.054024662631675, 7.938958609735765e-15, -6.615496630461811e-15, -7.699875579681541, 1.920084101422455e-15, -1.855962727793125e-15, 7.699875579902178, 4.835899772537483e-15, -3.6149077449467846e-12, -5.22993111000073, -2.5511283855521276e-11, 4.72844476026456e-12, -5.229931109989906, -6.0761483282764095e-12, 4.7302880351808325e-12, 5.229931110314807, 2.002278557854868e-15, -3.614798644170164e-12, 5.229931110304482, -7.044853851766813e-27, 2.079718761281929e-27, 1.9438871977929483e-27, 1.0003070750887828e-14, -7.22300092702574e-15, -9.91692820289166, -1.2247198298690372e-16, -1.282798244917872e-15, 9.916928203194583, 1.3642860849951628, -2.0590861879265742e-11, -3.3494839211156295e-12, -3.960063306162954e-13, 1.3642860850151814, 5.63819401385197e-12, -1.0143597053208592e-11, 1.0950656070413543e-11, -1.3576449264592012, -5.017215756163098e-27, 5.566079857391707e-27, 3.955959313732235e-15, 70.0, 7.304948487351598e-27, -3.955959312376445e-15, -3.47064371456699e-27, 3.864399170019707e-27, -1.618143287560801e-14, -8.140603303046192e-27, 9.006507715005672e-27, 1.618143287192191e-14, -3.897921891224216e-27, 4.591799708971642e-25, -2.040707601777653e-24, -9.703284636482123e-27, 4.666201098129682e-25, -1.8027969052699082e-24, -1.0780714662860477e-26, 1.1962231603685426e-26, 1.6440817998190948e-14, -8.304261395989934e-28, 9.087514176525725e-28, -1.6440817993506887e-14, -9.074425663940315e-27, 1.0120999215155228e-26, 5.1602484303664606e-14, -2.53516600041869e-27, 2.7468633414095788e-27, -5.1602484300013644e-14, -8.105699816570167e-27, 4.589781025131068e-25, -6.374063285693722e-15, -3.1344459753594162e-25, -7.081584472000491e-25, -6.374063291403361e-15, -9.862149167643866e-26, -7.110044409954177e-25, 6.374063276590478e-15, -5.494356371515194e-27, 4.591791718150032e-25, 6.374063282323577e-15, 8.288618833222393e-41, -1.3514169408474698e-40, -1.0252258233546155e-39, -9.953894178000288e-27, 1.1028781566872421e-26, -1.2802207705821072e-14, -1.6568124808350003e-27, 1.841691377949159e-27, 1.2802207706694368e-14, -5.669157163798933e-13, 3.2235277060743686e-25, -7.150538190644005e-26, -2.2072202434966334e-25, -5.669157163802819e-13, 5.51237467053113e-25, 1.3616303753561163e-24, 1.1525078904447563e-25, -1.5540574765711887e-12, 5.55304375031289e-27, -6.277410432463131e-27, -4.834393520303182e-15, 7.304948487351598e-27, 70.0, 4.83439352144854e-15, 3.844747056046996e-27, -4.3582868990500776e-27, 1.8176998097268956e-14, 9.014057632550256e-27, -1.0156895042723702e-26, -1.817699809592837e-14, 4.535411827865587e-27, -5.545273945347148e-26, 1.5686378082042237e-25, 1.0964464363587689e-26, -6.407470733299937e-26, 6.992823779866548e-25, 1.1943034034347362e-26, -1.3490077072111367e-26, -1.4237414366970463e-14, 9.150920914641505e-28, -1.0246632326842153e-27, 1.4237414367489792e-14, 1.0041148528463055e-26, -1.1415185707619693e-26, -6.43496301475325e-14, 2.8170630684499375e-27, -3.0988114009602894e-27, 6.434963014829543e-14, 9.195500225977478e-27, -5.526857728975987e-26, 7.278163932911185e-15, 1.838625381803657e-26, 2.605429705759603e-26, 7.278163932603018e-15, 9.153019567680617e-27, 2.9264711539452824e-26, -7.278163932278166e-15, 6.30325513860559e-27, -5.5451941813105e-26, -7.278163931981484e-15, 2.0775440954321483e-42, 1.367343100906103e-41, -5.529192278238451e-41, 1.1023237743485207e-26, -1.2437126776678164e-26, 1.4287582938033712e-14, 1.8341159778454115e-27, -2.077012178239338e-27, -1.428758293682156e-14, 4.267551551572088e-13, 1.852293172427725e-26, 1.910882390297054e-27, 1.8643927238848246e-26, 4.267551551572567e-13, -9.667126108426602e-27, 3.392222407006881e-26, -3.214908169858908e-28, 1.7757755705349447e-12, -5.903137567628615e-15, 3.643135600603264e-15, 12.865403791821748, -3.955959312376445e-15, 4.83439352144854e-15, 57.134596207973686, -1.6123430870761763e-15, 2.577216587047046e-15, -6.376006683485667, -8.211310159712386e-15, 5.863202533589128e-15, 6.37600668311904, -9.924755280006028e-16, 3.614802143899655e-12, -4.085418772824189e-11, -5.911328362317236e-15, 3.617073907216715e-12, -1.0263022377076634e-10, -7.435123820738824e-15, 7.898349743891061e-15, 2.05402466241482, -2.394654955912331e-15, 5.323683968245621e-16, -2.0540246627432426, -7.93895861534773e-15, 6.615496631176703e-15, 7.69987557968949, -1.9200840961496503e-15, 1.85596272790363e-15, -7.699875579910125, -4.835899775219594e-15, 3.6149075674511055e-12, 5.229931110037837, 2.551128400089848e-11, -4.728444366173418e-12, 5.229931110027011, 6.076148617909074e-12, -4.730287641090637e-12, -5.229931110351913, -2.0022785568435483e-15, 3.614798466674459e-12, -5.229931110341586, 7.04485381350716e-27, -2.0797187448891178e-27, -1.9438872059472344e-27, -1.0003070746427307e-14, 7.223000927481021e-15, 9.916928203009695, 1.2247197821037973e-16, 1.2827982449230602e-15, -9.916928203312617, -1.3642860861384438, 2.059086150144582e-11, 3.349483772470477e-12, 3.9600661620466217e-13, -1.3642860861584616, -5.638194121831139e-12, 1.0143597803571617e-11, -1.0950656033815556e-11, 1.3576449265567039, -2.6403545840498096e-27, 2.9297514182978053e-27, 1.6123430937337654e-15, -3.47064371456699e-27, 3.844747056046996e-27, -1.6123430870761763e-15, 70.0, 2.0364562442445653e-27, -6.71226283121819e-15, -4.2857507532349794e-27, 4.7393109346550924e-27, 6.7122628340921925e-15, -2.0504028355131533e-27, 5.6602988069379095e-25, 1.3580015384349364e-24, -5.105629525759845e-27, 5.699432120689115e-25, 4.638629782240485e-24, -5.674118857641807e-27, 6.296517094781987e-27, 8.190575002689374e-15, -4.377876691788408e-28, 4.797766935790899e-28, -8.190574993039718e-15, -4.773990462123887e-27, 5.3273819634365214e-27, 2.816788514693077e-14, -1.3351379576876047e-27, 1.4449848071398215e-27, -2.8167885141367604e-14, -4.2651075884726196e-27, 5.659225764152345e-25, -3.842037756975273e-15, -3.7415368808245886e-25, -4.725808789883658e-25, -3.842037758096294e-15, -2.8024300162668854e-25, -4.740793001467805e-25, 3.842037762059614e-15, -2.890494019418537e-27, 5.66029461044871e-25, 3.8420377630143425e-15, -1.9896828055701396e-41, -9.979772679058968e-41, -2.013033692144324e-40, -5.237944082377202e-27, 5.8049224257227825e-27, -5.2758004320925476e-15, -8.728224258859547e-28, 9.697880707699788e-28, 5.275800438068017e-15, -3.1011610999959767e-13, 2.162081427932142e-25, -1.3988780439617867e-25, -1.9219796664749043e-25, -3.1011611000021296e-13, 2.8572495418486596e-25, -3.861306326356985e-25, 1.4568655245702155e-27, -8.239864500213104e-13, 2.9385728100364617e-27, -3.321472099711655e-27, -2.5772165869634514e-15, 3.864399170019707e-27, -4.3582868990500776e-27, 2.577216587047046e-15, 2.0364562442445653e-27, 70.0, 9.972566352153629e-15, 4.7670473048437444e-27, -5.3740340133459404e-27, -9.972566351949923e-15, 2.3997137575173972e-27, -4.11021023341387e-26, -1.391662809197381e-25, 5.801223123660375e-27, -4.566397482278465e-26, -1.8601877329911077e-25, 6.317650505084404e-27, -7.13767673146041e-27, -7.648098033600479e-15, 4.8542572000106245e-28, -5.422101361985197e-28, 7.6480980330937e-15, 5.3123197132141356e-27, -6.039883358034862e-27, -3.414447875503395e-14, 1.4907723276498697e-27, -1.6395936174181715e-27, 3.4144478755022226e-14, 4.865854501338068e-27, -4.1004657403481964e-26, 3.844159821067422e-15, 1.0101959925306515e-26, 2.3479150348293006e-26, 3.844159820840462e-15, 1.3158098427323804e-26, 2.5177880398054947e-26, -3.844159821514714e-15, 3.3344459325998095e-27, -4.11016751073604e-26, -3.8441598212783725e-15, 4.452972062528607e-42, 8.31228810865312e-42, -4.0729680283965555e-41, 5.8341739702686495e-27, -6.580571324610185e-27, 7.76552397043876e-15, 9.684691363051914e-28, -1.0989876754127199e-27, -7.765523970470875e-15, 2.2464631153704968e-13, 5.314998747367524e-27, -8.0217003664426075e-28, 1.5258862911367833e-26, 2.2464631153709116e-13, 9.75006780255569e-28, 8.13704839087568e-26, 4.272613318444947e-27, 9.397002935356119e-13, -1.2276543485345981e-14, 1.3833443699954342e-14, 6.376006683224413, -1.618143287560801e-14, 1.8176998097268956e-14, -6.376006683485667, -6.71226283121819e-15, 9.972566352153629e-15, 40.50604648592929, -2.1927576478435896e-14, 2.2242176647568645e-14, 29.49395351397334, -8.40382484472473e-15, 3.2008222255912978e-12, -1.7437992734923263e-11, -2.2628471645875554e-14, 3.2167824631480025e-12, -1.6312703627906846e-10, -2.7047642765929193e-14, 2.971652547409762e-14, -0.46805357264820185, -1.3928286385282485e-15, 2.2904299644006657e-15, 0.46805357239131246, -2.1657535395414255e-14, 2.5155931661348423e-14, -2.8938496881325415, -6.768067317658348e-15, 6.772274176672223e-15, 2.8938496880305182, -1.9070014167845804e-14, 3.2013705748654834e-12, -2.2979200489365654, -7.27891473106622e-12, -9.058546891753788e-12, -2.297920049096616, -6.688128663631365e-13, -9.065509672112296e-12, 2.2979200486749125, -1.1953578695672098e-14, 3.2008332745339896e-12, 2.297920048820542, 9.70180488037196e-28, -4.442866657797202e-27, -2.873847658883888e-26, -2.3297405934249276e-14, 2.7456050399022373e-14, -2.1858832290551358, -5.221388719162976e-15, 4.5943403822374426e-15, 2.1858832287523806, -5.437314229581319, 2.169763167741842e-12, -2.1812368954730113e-12, 2.320340918236295e-12, -5.437314229583263, 6.800063326231777e-12, 3.498787893097356e-11, 1.7324283623459562e-12, 4.1782932099011605, -6.187553599485974e-27, 6.86985275246553e-27, 8.211310152485285e-15, -8.140603303046192e-27, 9.014057632550256e-27, -8.211310159712386e-15, -4.2857507532349794e-27, 4.7670473048437444e-27, -2.1927576478435896e-14, 70.0, 1.1116257019363651e-26, 2.1927576474001567e-14, -4.81825730445807e-27, -4.871890210440412e-25, -1.4319240878014537e-24, -1.1982655817699965e-26, -4.7799164950223155e-25, -4.874192234477658e-24, -1.331066392042378e-26, 1.4762503169002864e-26, 1.2624907583250652e-14, -1.016719953544414e-27, 1.1197753839647307e-27, -1.2624907592077537e-14, -1.1199147744365316e-26, 1.249180202333536e-26, 6.42536875298653e-14, -3.1299991207077136e-27, 3.39184353201149e-27, -6.425368753595172e-14, -1.0010273851344478e-26, -4.8743759058085135e-25, -7.15859936661805e-15, 3.6855448619543626e-25, 4.092481252330318e-25, -7.158599365091194e-15, 2.5807580189097332e-25, 4.05734637335982e-25, 7.158599361233103e-15, -6.788694100759568e-27, -4.8719002487577065e-25, 7.158599359886326e-15, 2.1350330191413356e-41, 8.545860119818261e-41, 2.741608496381869e-40, -1.2279945966976531e-26, 1.3610702391743912e-26, -1.3948727260140017e-14, -2.0475176521676927e-27, 2.2725089698430743e-27, 1.3948727253821347e-14, -6.875338701760817e-13, -2.1748326199506798e-25, 1.3851428434680838e-25, 1.5222370932731354e-25, -6.875338701755397e-13, -2.9434251691531434e-25, 3.2730060774237013e-25, -1.4243221415973005e-26, -1.916447485000743e-12, 6.848068079247039e-27, -7.740591005971826e-27, -5.863202533070297e-15, 9.006507715005672e-27, -1.0156895042723702e-26, 5.863202533589128e-15, 4.7393109346550924e-27, -5.3740340133459404e-27, 2.2242176647568645e-14, 1.1116257019363651e-26, 70.0, -2.2242176646725876e-14, 5.593394505832285e-27, -5.010336362797491e-26, -8.250795618297679e-26, 1.3520727646266614e-26, -6.073662061896746e-26, 1.4056536767854658e-25, 1.472495975659231e-26, -1.6634169791658362e-26, -1.7836207458633908e-14, 1.1297109194357437e-27, -1.26343893591383e-27, 1.7836207458251074e-14, 1.2380968176705707e-26, -1.4075709402113652e-26, -7.939808599667008e-14, 3.473870969722186e-27, -3.821079782098819e-27, 7.939808599669046e-14, 1.1340200163684138e-26, -4.987633584110479e-26, 8.940178156151282e-15, 1.2014396694232035e-26, 3.250810511717391e-26, 8.940178155659836e-15, 1.5572553528665764e-26, 3.646669239481139e-26, -8.940178156449385e-15, 7.772485312861814e-27, -5.0102370478456006e-26, -8.940178155979503e-15, -1.0568232413007502e-42, 1.2293874249436187e-41, -8.819025847971247e-41, 1.3592277826583267e-26, -1.533583033107889e-26, 1.773988151311357e-14, 2.2614352749054472e-27, -2.561100655447685e-27, -1.7739881512817877e-14, 5.248729623136205e-13, 1.440254437281151e-26, -1.0947932490152274e-26, 3.223051562145496e-26, 5.248729623136846e-13, -4.912065074853154e-28, 1.1870519705659887e-25, 5.188233006357292e-27, 2.1899962688661747e-12, 1.2276543488436831e-14, -1.3833443700821947e-14, -6.3760066828577875, 1.618143287192191e-14, -1.817699809592837e-14, 6.37600668311904, 6.7122628340921925e-15, -9.972566351949923e-15, 29.49395351397334, 2.1927576474001567e-14, -2.2242176646725876e-14, 40.506046486124085, 8.403824845835387e-15, -3.2008223219697008e-12, 1.7437989996954938e-11, 2.262847164617279e-14, -3.216782559528511e-12, 1.6312702656103537e-10, 2.704764275430819e-14, -2.9716525472588493e-14, 0.46805357224497157, 1.3928286484891784e-15, -2.2904299646837418e-15, -0.46805357198807934, 2.1657535392023396e-14, -2.5155931660433215e-14, 2.8938496878192397, 6.768067319961451e-15, -6.7722741766202745e-15, -2.893849687717213, 1.907001416886159e-14, -3.2013706712439252e-12, 2.297920048989901, 7.278914775105497e-12, 9.058547044443602e-12, 2.297920049149951, 6.68813056751138e-13, 9.065509824801754e-12, -2.2979200487282463, 1.1953578695243929e-14, -3.2008333709123813e-12, -2.297920048873877, -9.701805063327396e-28, 4.442866656421263e-27, 2.873847634034954e-26, 2.3297405939867142e-14, -2.7456050398081782e-14, 2.1858832297061728, 5.221388712179554e-15, -4.594340382202561e-15, -2.185883229403421, 5.437314222572057, -2.169763401812076e-12, 2.18123675150329e-12, -2.3203407239320555e-12, 5.437314222574008, -6.800063303116958e-12, -3.498787800643079e-11, -1.7324283133025477e-12, -4.178293209412072, -2.9695162093953636e-27, 3.456263712448155e-27, 9.924755279534348e-16, -3.897921891224216e-27, 4.535411827865587e-27, -9.924755280006028e-16, -2.0504028355131533e-27, 2.3997137575173972e-27, -8.40382484472473e-15, -4.81825730445807e-27, 5.593394505832285e-27, 8.403824845835387e-15, 70.0, 2.1547530007675578e-26, 4.198492290505962e-25, -9.571637600111284e-27, 3.348457564755101e-26, 5.122616195545889e-25, -6.37226236373229e-27, 7.427310528730196e-27, 1.5236943146688832e-14, -4.9530054955705225e-28, 5.6454717917338155e-28, -1.5236943145894095e-14, -5.338956546831919e-27, 6.283730055543231e-27, 5.6154333602487684e-14, -1.5319034864584112e-27, 1.7114212512496787e-27, -5.6154333601174155e-14, -8.63243853437051e-27, 2.1342792878289349e-26, -5.459840367348947e-15, -9.144339702405266e-26, -3.0365374954568414e-26, -5.459840366849489e-15, -5.305619047903417e-26, -3.213391507459853e-26, 5.459840369195801e-15, -7.077901985354357e-27, 2.1546637940566785e-26, 5.459840368684942e-15, -1.4522861304909391e-41, -1.4525390127911745e-41, 8.954461093680149e-41, -5.9053495094524536e-27, 6.847244243986121e-27, -2.4076739707562535e-14, -9.614121199787934e-28, 1.1435867369588058e-27, 2.4076739708051285e-14, -2.712009136572019e-13, -3.3023825011624304e-26, 2.9145352146023784e-26, -3.134407039837522e-26, -2.7120091365728123e-13, 4.4771086013860523e-26, -2.167936922844941e-25, 1.571872768093148e-26, -1.0015436109663908e-12, -3.5905359032013873e-25, -4.26365457428239e-26, -3.6148023213953537e-12, 4.591799708971642e-25, -5.545273945347148e-26, 3.614802143899655e-12, 5.6602988069379095e-25, -4.11021023341387e-26, 3.2008222255912978e-12, -4.871890210440412e-25, -5.010336362797491e-26, -3.2008223219697008e-12, 2.1547530007675578e-26, 70.0, 3.536969047710805e-21, 5.730574329869736e-26, -1.2340976122542604e-20, -7.56870850792492e-20, 2.866343223223531e-25, -7.329961196151904e-26, 4.120968918186491e-12, -2.0143125026546723e-25, -3.139212316485113e-26, -4.120969201002528e-12, -2.5626874140375707e-25, -5.298404740721964e-26, -7.2141292662858494e-12, 3.267968594939648e-25, -1.607065767134159e-26, 7.2141290379743165e-12, -1.2891470745062254e-25, -1.2340934413071597e-20, -2.5405885027834665e-12, 8.401055543133673e-21, 1.3610273884361366e-20, -2.540588446103781e-12, 3.900875395362746e-21, 1.361028321589451e-20, 2.5405884487727407e-12, 2.0485288523101334e-25, -1.2340936724380435e-20, 2.5405883938065923e-12, -5.60150186073948e-37, 3.0408580055399434e-36, 1.0177514725300385e-35, 1.329588740061805e-26, -7.37777166104557e-26, -2.5576212934045874e-12, 6.594323534593654e-26, -1.1081040256834773e-26, 2.55762108294262e-12, -1.0762403728803324e-10, -6.486511696406487e-21, 6.282962732285092e-22, 5.181794577941584e-21, -1.0762403727907612e-10, -8.900738516195664e-21, -6.420929889246707e-21, -2.1475183285153133e-21, 6.21725537829074e-12, 2.0294461416472162e-24, -3.0535976097339908e-25, 4.08541848733664e-11, -2.040707601777653e-24, 1.5686378082042237e-25, -4.085418772824189e-11, 1.3580015384349364e-24, -1.391662809197381e-25, -1.7437992734923263e-11, -1.4319240878014537e-24, -8.250795618297679e-26, 1.7437989996954938e-11, 4.198492290505962e-25, 3.536969047710805e-21, 70.0, 3.3107024834496016e-25, 3.536175548535112e-21, -2.4523637395612383e-18, -3.813609168300567e-24, 1.166294711317823e-25, 1.0449219446774513e-10, 3.615024869842466e-24, -1.251519886205937e-25, -1.0449219755808807e-10, -3.503655645891071e-25, -3.082956973651724e-26, 3.9781587351294025e-11, 2.462558481978648e-25, -2.323163368679735e-26, -3.97815904622349e-11, 1.4448536746357044e-24, 3.536955247052849e-21, 8.171335363031461e-12, -2.157200897434827e-20, -6.466887538465957e-21, 8.171334896838258e-12, 3.309793916259547e-20, -6.466914789040557e-21, -8.171339325328817e-12, -7.922022362291655e-25, 3.536979658707634e-21, -8.171338855380537e-12, -2.696060055025548e-36, -1.6909736454298843e-36, -8.370764666004008e-35, 3.2180010888632318e-24, -6.898050272129461e-26, -4.721309749315351e-11, -3.37462357691406e-24, 3.132910923016118e-27, 4.721309383647495e-11, 3.796578151449276e-10, -3.4261651643719585e-20, -3.3560132918475855e-20, 3.203982314263379e-20, 3.796578151992527e-10, 4.02675386218719e-20, 3.170353425205359e-19, 2.358301116720153e-20, -7.804434684755132e-12, -7.383308436997215e-27, 8.35579547187966e-27, 5.9113283618871226e-15, -9.703284636482123e-27, 1.0964464363587689e-26, -5.911328362317236e-15, -5.105629525759845e-27, 5.801223123660375e-27, -2.2628471645875554e-14, -1.1982655817699965e-26, 1.3520727646266614e-26, 2.262847164617279e-14, -9.571637600111284e-27, 5.730574329869736e-26, 3.3107024834496016e-25, 70.0, 7.579699250414211e-26, 3.120179988290611e-25, -1.5864456318004427e-26, 1.79562561044867e-26, 2.55237558055171e-14, -1.222326061945038e-27, 1.3642770488262316e-27, -2.552375580446467e-14, -1.332553122018065e-26, 1.5192840712200613e-26, 1.0236937253071013e-13, -3.764062614961927e-27, 4.1297145908815615e-27, -1.023693725297323e-13, -1.576912092396706e-26, 5.692304139174266e-26, -1.0962485653333107e-14, -9.427804662612708e-26, -5.0449131672192666e-26, -1.0962485652533654e-14, -6.655601027047175e-26, -5.472350396520674e-26, 1.0962485654985786e-14, -1.1917103991143439e-26, 5.73041441075869e-26, 1.0962485654184409e-14, -1.52012651947402e-41, -1.990970481508068e-41, 1.434033568931819e-40, -1.4663562021563223e-26, 1.6554522200205158e-26, -3.362937737573851e-14, -2.4218937161336615e-27, 2.7646502850783968e-27, 3.3629377375946624e-14, -7.701463389805382e-13, -3.5960511431165346e-26, 2.9337370380448344e-26, -4.884087751764463e-26, -7.701463389806498e-13, 3.5378547762096386e-26, -2.5275424861633317e-25, 8.296725359934796e-27, -2.3717416631022795e-12, -3.533853715921515e-25, -4.9206961834652944e-26, -3.617074084712323e-12, 4.666201098129682e-25, -6.407470733299937e-26, 3.617073907216715e-12, 5.699432120689115e-25, -4.566397482278465e-26, 3.2167824631480025e-12, -4.7799164950223155e-25, -6.073662061896746e-26, -3.216782559528511e-12, 3.348457564755101e-26, -1.2340976122542604e-20, 3.536175548535112e-21, 7.579699250414211e-26, 70.0, -7.568804062234179e-20, 2.9879747966345765e-25, -8.741908867104179e-26, 4.0916415083579135e-12, -2.004858088491457e-25, -3.2465381555525625e-26, -4.091641791175476e-12, -2.4607786325825577e-25, -6.492923575212423e-26, -7.321457953348153e-12, 3.297209010763598e-25, -1.9324490054093024e-26, 7.321457725034122e-12, -1.1221600037410872e-25, -1.2340973956549263e-20, -2.530094223560407e-12, 8.401232811717282e-21, 1.361033337441917e-20, -2.5300941668816377e-12, 3.9009783430815826e-21, 1.3610346068135334e-20, 2.5300941695461787e-12, 2.185840143870614e-25, -1.2340976673618992e-20, 2.5300941145809882e-12, -5.6012212347967596e-37, 3.0408859224360655e-36, 1.0177347697785625e-35, 2.456796361651951e-26, -8.679452129761578e-26, -2.5109915400583602e-12, 6.777822749585517e-26, -1.3254995368821768e-26, 2.5109913295954495e-12, -1.0703010829348945e-10, -6.486448092202043e-21, 6.282412999877152e-22, 5.181854484679103e-21, -1.0703010828453232e-10, -8.900824671001758e-21, -6.42052335717653e-21, -2.1475486815261094e-21, 8.12743160489473e-12, 2.3351618474127014e-24, -1.191197415614046e-24, 1.02630211942002e-10, -1.8027969052699082e-24, 6.992823779866548e-25, -1.0263022377076634e-10, 4.638629782240485e-24, -1.8601877329911077e-25, -1.6312703627906846e-10, -4.874192234477658e-24, 1.4056536767854658e-25, 1.6312702656103537e-10, 5.122616195545889e-25, -7.56870850792492e-20, -2.4523637395612383e-18, 3.120179988290611e-25, -7.568804062234179e-20, 70.0, -8.543599446428788e-24, 4.892855629646931e-25, 2.2154451663045673e-10, 8.203532997878005e-24, -2.4954822426352417e-25, -2.215445322887111e-10, -2.768192323022745e-24, 7.644610111876122e-26, 1.9108015192660443e-10, 2.712728363284629e-24, 1.5939221970145722e-26, -1.910801646317627e-10, 5.690008098612953e-25, -7.568708256550217e-20, 5.592621716449884e-11, 6.386865139953348e-20, 2.103377425983339e-19, 5.5926216725853515e-11, 2.2351060338436077e-19, 2.1033742119225719e-19, -5.592622854696835e-11, -6.658688700435554e-25, -7.568707360116167e-20, -5.5926228094565615e-11, -1.8850015932161582e-35, -5.618164772718716e-36, -7.875925960160921e-35, 5.9071498121892776e-24, -4.326373971479673e-26, -1.3521534153185102e-10, -5.940385061646731e-24, -1.034714731701624e-25, 1.3521532602042224e-10, 1.8041954711549864e-09, -2.589883668809686e-19, -1.1656704958649284e-19, 1.9172506371207491e-19, 1.8041954714510443e-09, -1.9456369818543205e-20, 6.835552312195281e-19, 5.181656332210105e-20, -1.1406531571404538e-10, -8.20394645533633e-27, 9.099634519447883e-27, 7.435123812716933e-15, -1.0780714662860477e-26, 1.1943034034347362e-26, -7.435123820738824e-15, -5.674118857641807e-27, 6.317650505084404e-27, -2.7047642765929193e-14, -1.331066392042378e-26, 1.472495975659231e-26, 2.704764275430819e-14, -6.37226236373229e-27, 2.866343223223531e-25, -3.813609168300567e-24, -1.5864456318004427e-26, 2.9879747966345765e-25, -8.543599446428788e-24, 70.0, 1.9557803294597813e-26, 2.88922203903715e-14, -1.3604806827643467e-27, 1.4850206374730591e-27, -2.889222039774297e-14, -1.4834860404560993e-26, 1.6547911054747067e-26, 8.675359877893541e-14, -4.147408532971453e-27, 4.491223710863064e-27, -8.675359878577408e-14, -1.325476855074934e-26, 2.8630285691845006e-25, -1.0629776845400058e-14, -2.3789790842316023e-25, -5.317423574341423e-25, -1.0629776851422985e-14, 1.792721345305741e-26, -5.363958474481623e-25, 1.0629776827273612e-14, -8.979929732527879e-27, 2.866330147530555e-25, 1.0629776833354633e-14, 5.638928060350498e-41, -1.1755949185953036e-40, -1.081464092086314e-39, -1.627646935538051e-26, 1.8031189268868044e-26, -2.1386230379678512e-14, -2.707297379661723e-27, 3.0108598818540048e-27, 2.1386230368851816e-14, -9.169044935766273e-13, 1.2170341264188956e-25, -1.4614476084425998e-25, -5.738445266116023e-26, -9.169044935767612e-13, 4.6000777310474035e-25, 1.9193612729388823e-24, 1.3383679444435084e-25, -2.5512550679499e-12, 9.09546445325034e-27, -1.0280785649691248e-26, -7.89834974269602e-15, 1.1962231603685426e-26, -1.3490077072111367e-26, 7.898349743891061e-15, 6.296517094781987e-27, -7.13767673146041e-27, 2.971652547409762e-14, 1.4762503169002864e-26, -1.6634169791658362e-26, -2.9716525472588493e-14, 7.427310528730196e-27, -7.329961196151904e-26, 1.166294711317823e-25, 1.79562561044867e-26, -8.741908867104179e-26, 4.892855629646931e-25, 1.9557803294597813e-26, 70.0, -2.3094667567649914e-14, 1.500119609346279e-27, -1.6780602678789446e-27, 2.3094667567505865e-14, 1.6445221690752782e-26, -1.8695008774827724e-26, -1.0560914707432018e-13, 4.6129203654954256e-27, -5.075046401125877e-27, 1.0560914707511541e-13, 1.5059866107918108e-26, -7.299792805435399e-26, 1.1849804163287266e-14, 3.126642215378152e-26, 3.1027965990762184e-26, 1.1849804162421147e-14, 3.521297203958116e-26, 3.628577503288339e-26, -1.1849804163213452e-14, 1.03217628223009e-26, -7.329830106775932e-26, -1.1849804162365239e-14, 8.770716372552817e-42, 1.2043703033669962e-41, -1.5544980863191716e-40, 1.8053711569142378e-26, -2.0368591074788143e-26, 2.3565399488359372e-14, 3.0029261917696676e-27, -3.401605412209243e-27, -2.3565399487337652e-14, 6.961368398243883e-13, 2.877785121587195e-26, -4.763711244548579e-27, 3.3143906188836917e-26, 6.961368398244713e-13, 5.367331201955352e-27, 1.548062749393978e-25, 8.516846806403936e-27, 2.909154779363328e-12, 3.994152228983769e-15, -1.0983447255808855e-14, -2.054024662303253, 1.6440817998190948e-14, -1.4237414366970463e-14, 2.05402466241482, 8.190575002689374e-15, -7.648098033600479e-15, -0.46805357264820185, 1.2624907583250652e-14, -1.7836207458633908e-14, 0.46805357224497157, 1.5236943146688832e-14, 4.120968918186491e-12, 1.0449219446774513e-10, 2.55237558055171e-14, 4.0916415083579135e-12, 2.2154451663045673e-10, 2.88922203903715e-14, -2.3094667567649914e-14, 46.018772064991154, -8.562447598196408e-15, -2.072754584870613e-15, 23.981227934249148, 1.54721490714603e-14, -2.0009627749305166e-14, -0.3644708722711294, 5.008572988908311e-15, -5.304320350923448e-15, 0.3644708720909424, 2.012675660956168e-14, 4.120181306323284e-12, 0.028384066286320037, 7.270979026442225e-11, -6.18975668697635e-12, 0.028384066637676647, 1.0763473065006359e-11, -6.184064288713219e-12, -0.028384066257933604, 2.0968585766294258e-14, 4.120966590234981e-12, -0.028384066596738644, 1.308050338452262e-26, -3.844617156138753e-27, 6.30892761691248e-26, 1.2451449228057423e-14, -2.164694759186886e-14, -2.6117270859108777, 7.936020489013902e-15, -3.4889721798603464e-15, 2.6117270858389725, -3.015923352470823, 3.819129729548328e-11, 1.577762862570692e-11, -1.0258169713839574e-12, -3.015923352517019, -3.6909338633252406e-11, -8.773510699197906e-11, -3.179476667135217e-11, -4.182228590069858, -6.232474956775581e-28, 6.994393207784805e-28, 2.3946549632708203e-15, -8.304261395989934e-28, 9.150920914641505e-28, -2.394654955912331e-15, -4.377876691788408e-28, 4.8542572000106245e-28, -1.3928286385282485e-15, -1.016719953544414e-27, 1.1297109194357437e-27, 1.3928286484891784e-15, -4.9530054955705225e-28, -2.0143125026546723e-25, 3.615024869842466e-24, -1.222326061945038e-27, -2.004858088491457e-25, 8.203532997878005e-24, -1.3604806827643467e-27, 1.500119609346279e-27, -8.562447598196408e-15, 70.0, 1.1444936105812