[{"__ndarray__": [[30, 30], "float64", [70.0, -6.476697858399681e-30, 8.677356186408974e-17, -4.8521801007955454e-30, -3.2635032691679845e-30, -8.6773562324693e-17, -2.363636972966665e-27, -3.516107762996653e-26, 2.609676003346483e-31, 6.374911120614409e-27, 4.727273945933314e-27, -5.627324946176377e-26, -9.659927771810549e-30, -9.38179080190574e-30, -3.480061995357631e-16, -1.690009452303726e-30, -1.987287007684549e-30, 3.4800619959477133e-16, 5.63380393168452e-42, -1.7939045202585418e-41, 1.9948480368840995e-41, 2.0426461800558158e-14, 1.9657402295261002e-30, -1.4894096394901426e-29, 1.9657402295260963e-30, 2.0426461800558167e-14, -9.371181311265431e-30, -2.0460483915340443e-29, 1.2754373979065234e-29, -1.9972594727316e-15, -6.476697858399681e-30, 70.0, -1.2827727152744207e-15, -4.045518071857729e-30, -4.041616832790252e-30, 1.282772715480125e-15, 9.502088650897883e-28, 1.8086564925947543e-26, -1.0491193452805924e-31, 3.7663435073004804e-27, -1.900417730179571e-27, 4.045714656830613e-26, -8.932859258419163e-30, -9.41430221209644e-30, 1.0472982520671875e-15, -1.2821389622218346e-30, -1.8996687058243574e-30, -1.047298251993983e-15, -3.283404905225995e-42, 7.788744163055527e-42, -1.434175122136528e-41, 1.9298476865764548e-14, -1.93685258582879e-30, -1.4109101218586275e-29, -1.9368525858287948e-30, 1.929847686576456e-14, -9.817631311606273e-30, -1.9541694962600285e-29, 1.1776113789998046e-29, -3.929009051395935e-16, 8.677356186408974e-17, -1.2827727152744207e-15, 38.22468426454154, 8.443139107121971e-16, 5.949270513990676e-16, 31.775315735440046, 3.811623940556297e-12, -8.182860977951548e-12, -4.208388870513392e-16, -7.392411692151227e-12, -7.623247881112584e-12, -1.9023800395623632e-11, 7.886320504017939e-16, -1.3226763065795891e-16, 0.2677864499301914, -2.874188280666346e-16, -2.287350878310558e-16, -0.26778644995250067, 5.187143305472533e-27, -4.498151378881823e-28, 6.743626099404484e-27, 3.038601675000604, -5.087721171640725e-16, -9.2857965342679e-16, -5.087721171640709e-16, 3.038601675000603, -1.8053297258457375e-15, -8.360787376192119e-16, -2.1730069886285794e-15, -4.613535067930966, -4.8521801007955454e-30, -4.045518071857729e-30, 8.443139107121971e-16, 70.0, -2.0919205724901046e-30, -8.443139107677112e-16, -2.296580774276476e-28, -3.807303306158616e-27, 2.535639696147242e-32, 2.5100482781253254e-27, 4.59316154855293e-28, -2.082875946437419e-27, -5.633400107821781e-30, -5.061317317639483e-30, -7.749326099737486e-16, -9.663693717202513e-31, -1.5139581920715942e-30, 7.749326100103255e-16, 5.880219363531017e-43, -2.2736179000167133e-42, 7.383707793026414e-43, 1.449382415890405e-14, 2.6920789887967874e-30, -8.108070376912116e-30, 2.6920789887967843e-30, 1.4493824158904054e-14, -4.8464527983571234e-30, -1.1397692530846116e-29, 8.229301734347631e-30, -8.082885742146428e-16, -3.2635032691679845e-30, -4.041616832790252e-30, 5.949270513990676e-16, -2.0919205724901046e-30, 70.0, -5.949270510766769e-16, 1.380782105858802e-27, 2.286238424515066e-26, -1.5245124225537715e-31, -3.339887935845575e-27, -2.7615642117175935e-27, 5.610852176104267e-26, -4.244282837675938e-30, -5.564883730320303e-30, 5.812867284462209e-16, -1.018470796377577e-30, -8.727520900286448e-31, -5.812867284472424e-16, -3.917802915624378e-42, 1.1393648919655241e-41, -1.9890047333201512e-41, 1.1020121041608593e-14, -7.147047168717644e-31, -7.757919026656859e-30, -7.147047168717646e-31, 1.1020121041608598e-14, -5.2907430225940766e-30, -1.0511462520436602e-29, 5.654179261790526e-30, -2.6517679770159728e-15, -8.6773562324693e-17, 1.282772715480125e-15, 31.775315735440046, -8.443139107677112e-16, -5.949270510766769e-16, 38.22468426457837, -3.811623941645858e-12, 8.182860959262565e-12, 4.2083888717163695e-16, 7.392411694328174e-12, 7.623247883291706e-12, 1.902380035829336e-11, -7.886320506145434e-16, 1.3226763096072481e-16, -0.26778644999103896, 2.8741882802215217e-16, 2.2873508774656123e-16, 0.26778645001334844, -5.187143302278536e-27, 4.498151286803135e-28, -6.74362608617119e-27, -3.0386016751926563, 5.087721175006049e-16, 9.28579653291222e-16, 5.087721175006045e-16, -3.0386016751926554, 1.8053297255952048e-15, 8.360787374857811e-16, 2.17300698836957e-15, 4.61353506800768, -2.363636972966665e-27, 9.502088650897883e-28, 3.811623940556297e-12, -2.296580774276476e-28, 1.380782105858802e-27, -3.811623941645858e-12, 70.0, -8.174633723900721e-23, 5.873886536307966e-28, 1.0530688491708145e-23, 1.0640198533541219e-23, -1.6279353095254886e-22, -1.2243865139718872e-27, 1.3176805046314412e-27, -2.1250973028499122e-12, -2.405018903097368e-28, -4.303915515586374e-28, 2.125097302885923e-12, 1.3483665378647855e-38, -4.0759134915221576e-38, 5.770912902205724e-38, 3.3327179946274567e-13, 2.7666565685618415e-27, -7.989527588507627e-28, 2.7666565685618397e-27, 3.3327179946274976e-13, -8.417935878958569e-28, -9.356303893021298e-28, -2.9852051207067305e-28, 1.65354085106474e-13, -3.516107762996653e-26, 1.8086564925947543e-26, -8.182860977951548e-12, -3.807303306158616e-27, 2.286238424515066e-26, 8.182860959262565e-12, -8.174633723900721e-23, 70.0, 9.025559216602441e-27, 1.314810646682961e-22, 1.6349267447801386e-22, -2.8218172672298313e-21, -1.6047632888811315e-26, 2.3538006270000282e-26, 2.434129616332543e-12, -4.136032348363316e-27, -7.14900729882421e-27, -2.4341296160231194e-12, 2.4975578743320896e-37, -7.052121774622958e-37, 1.0003133974845898e-36, -1.569881579465648e-11, 6.669089691134324e-26, 6.397797432961325e-27, 6.669089691134323e-26, -1.569881579465643e-11, 8.162565725900609e-27, 1.1037365624179342e-26, -1.027902177799175e-26, -4.372164323250093e-12, 2.609676003346483e-31, -1.0491193452805924e-31, -4.208388870513392e-16, 2.535639696147242e-32, -1.5245124225537715e-31, 4.2083888717163695e-16, 5.873886536307966e-28, 9.025559216602441e-27, 70.0, -1.1626863757238486e-27, -1.1747773072615892e-27, 1.7973926457378682e-26, 1.3518370802141758e-31, -1.4548423605664136e-31, 2.3463059256790186e-16, 2.65536551957937e-32, 4.751924754001402e-32, -2.3463059257187777e-16, -1.488722607550662e-42, 4.5001892221662314e-42, -6.371626899991349e-42, -3.6796319698132863e-17, -3.054647282476402e-31, 8.821184751575415e-32, -3.0546472824763996e-31, -3.679631969813332e-17, 9.294187522459372e-32, 1.0330233460662903e-31, 3.29594530060804e-32, -1.825663555706717e-17, 6.374911120614409e-27, 3.7663435073004804e-27, -7.392411692151227e-12, 2.5100482781253254e-27, -3.339887935845575e-27, 7.392411694328174e-12, 1.0530688491708145e-23, 1.314810646682961e-22, -1.1626863757238486e-27, 70.0, -2.1061376983416207e-23, 3.403735670603238e-22, 5.2186230288493446e-27, 1.6310630419062842e-27, 4.639958019457737e-12, 1.3801210513307496e-28, 5.434991368340996e-28, -4.6399580198906245e-12, -1.9976605772984647e-38, 7.426683215019318e-38, -1.206599439522174e-37, -5.021340162700958e-12, 4.7184434159025073e-26, 2.446777072650787e-26, 4.71844341590251e-26, -5.021340162700979e-12, 3.735141787807845e-26, 3.0861122963959417e-26, 1.1938801903923314e-26, -9.154817826648066e-12, 4.727273945933314e-27, -1.900417730179571e-27, -7.623247881112584e-12, 4.59316154855293e-28, -2.7615642117175935e-27, 7.623247883291706e-12, 1.0640198533541219e-23, 1.6349267447801386e-22, -1.1747773072615892e-27, -2.1061376983416207e-23, 70.0, 3.2558706190509654e-22, 2.4487730279437666e-27, -2.6353610092628737e-27, 4.250194605699817e-12, 4.810037806194722e-28, 8.607831031172721e-28, -4.250194605771838e-12, -2.696733075729561e-38, 8.151826983044285e-38, -1.1541825804411404e-37, -6.665435989254944e-13, -5.53331313712368e-27, 1.597905517701517e-27, -5.533313137123677e-27, -6.665435989255025e-13, 1.6835871757916994e-27, 1.87126077860425e-27, 5.970410241413363e-28, -3.307081702129457e-13, -5.627324946176377e-26, 4.045714656830613e-26, -1.9023800395623632e-11, -2.082875946437419e-27, 5.610852176104267e-26, 1.902380035829336e-11, -1.6279353095254886e-22, -2.8218172672298313e-21, 1.7973926457378682e-26, 3.403735670603238e-22, 3.2558706190509654e-22, 70.0, -1.5819591408341867e-26, 6.07462661289294e-26, 1.3683471152818095e-13, -3.543428424802735e-27, -8.668458894638659e-27, -1.368347102382574e-13, 4.839003242047964e-37, -1.3913264109651214e-36, 2.0202189715478555e-36, -7.232042613206927e-11, 1.4559405336606368e-26, -3.3079286176932434e-27, 1.45594053366063e-26, -7.232042613206917e-11, -4.0008449815592725e-26, 6.0083112894584374e-27, -7.703910576761958e-26, 1.5828311511629112e-11, -9.659927771810549e-30, -8.932859258419163e-30, 7.886320504017939e-16, -5.633400107821781e-30, -4.244282837675938e-30, -7.886320506145434e-16, -1.2243865139718872e-27, -1.6047632888811315e-26, 1.3518370802141758e-31, 5.2186230288493446e-27, 2.4487730279437666e-27, -1.5819591408341867e-26, 70.0, -1.238053014201077e-29, -5.157645763686314e-16, -2.3080653218425274e-30, -2.452154308397775e-30, 5.157645764367323e-16, 2.3688620489708903e-42, -8.729272514910317e-42, 5.607958397371745e-42, 2.4949129819869165e-14, -3.1406815197453788e-30, -2.087740009493767e-29, -3.140681519745382e-30, 2.4949129819869178e-14, -1.569757262713145e-29, -2.817031413510002e-29, 1.329066655506062e-29, -3.798388242569118e-15, -9.38179080190574e-30, -9.41430221209644e-30, -1.3226763065795891e-16, -5.061317317639483e-30, -5.564883730320303e-30, 1.3226763096072481e-16, 1.3176805046314412e-27, 2.3538006270000282e-26, -1.4548423605664136e-31, 1.6310630419062842e-27, -2.6353610092628737e-27, 6.07462661289294e-26, -1.238053014201077e-29, 70.0, -6.699486049959851e-16, -1.907837223227062e-30, -3.143387738552499e-30, 6.699486050635526e-16, -4.2099373997563725e-42, 1.0764258911888441e-41, -2.1534085758944184e-41, 3.060271753725535e-14, 6.589339724973143e-30, -1.627595938406377e-29, 6.589339724973138e-30, 3.0602717537255354e-14, -7.7361766495225e-30, -2.3504370709574498e-29, 2.09956739190235e-29, 9.21985891243257e-16, -3.480061995357631e-16, 1.0472982520671875e-15, 0.2677864499301914, -7.749326099737486e-16, 5.812867284462209e-16, -0.26778644999103896, -2.1250973028499122e-12, 2.434129616332543e-12, 2.3463059256790186e-16, 4.639958019457737e-12, 4.250194605699817e-12, 1.3683471152818095e-13, -5.157645763686314e-16, -6.699486049959851e-16, 41.4889517679336, -2.0929337607723402e-16, 1.1418192681557466e-15, 28.511048232048665, -2.2879265049579212e-27, -1.4842136457064894e-27, -4.8423565761845145e-29, -0.10230940029196328, 7.9255817753851765e-16, -4.3098521938359955e-15, 7.925581775385249e-16, -0.10230940029196278, -4.361098608499364e-15, -4.1066422225002895e-15, -5.1688277577599494e-15, -13.557327667254794, -1.690009452303726e-30, -1.2821389622218346e-30, -2.874188280666346e-16, -9.663693717202513e-31, -1.018470796377577e-30, 2.8741882802215217e-16, -2.405018903097368e-28, -4.136032348363316e-27, 2.65536551957937e-32, 1.3801210513307496e-28, 4.810037806194722e-28, -3.543428424802735e-27, -2.3080653218425274e-30, -1.907837223227062e-30, -2.0929337607723402e-16, 70.0, -6.3530756598249405e-31, 2.0929337608236341e-16, 6.810385367780836e-43, -1.9717288451450606e-42, 1.2561246230474185e-42, 5.365919023243548e-15, 3.801178013435778e-30, -1.659219128893153e-30, 3.801178013435778e-30, 5.365919023243549e-15, 5.874832952814938e-31, -2.7763766762659294e-30, 5.02801694329789e-30, 1.0603038737876279e-15, -1.987287007684549e-30, -1.8996687058243574e-30, -2.287350878310558e-16, -1.5139581920715942e-30, -8.727520900286448e-31, 2.2873508774656123e-16, -4.303915515586374e-28, -7.14900729882421e-27, 4.751924754001402e-32, 5.434991368340996e-28, 8.607831031172721e-28, -8.668458894638659e-27, -2.452154308397775e-30, -3.143387738552499e-30, 1.1418192681557466e-15, -6.3530756598249405e-31, 70.0, -1.1418192681486618e-15, 1.1877299090434298e-42, -3.506595774980976e-42, 3.072911725342583e-42, 4.277393609845621e-15, -2.8042309426941606e-30, -6.458363014710507e-30, -2.8042309426941613e-30, 4.2773936098456255e-15, -5.812099018139652e-30, -8.078059576399168e-30, 6.259518178136674e-31, -3.798405191258185e-15, 3.4800619959477133e-16, -1.047298251993983e-15, -0.26778644995250067, 7.749326100103255e-16, -5.812867284472424e-16, 0.26778645001334844, 2.125097302885923e-12, -2.4341296160231194e-12, -2.3463059257187777e-16, -4.6399580198906245e-12, -4.250194605771838e-12, -1.368347102382574e-13, 5.157645764367323e-16, 6.699486050635526e-16, 28.511048232048665, 2.0929337608236341e-16, -1.1418192681486618e-15, 41.48895176796907, 2.287926504921754e-27, 1.484213645939324e-27, 4.842356530457325e-29, 0.102309400208631, -7.925581770494365e-16, 4.309852194067038e-15, -7.925581770494375e-16, 0.10230940020862644, 4.361098608853508e-15, 4.1066422227898946e-15, 5.168827757881343e-15, 13.557327667246918, 5.63380393168452e-42, -3.283404905225995e-42, 5.187143305472533e-27, 5.880219363531017e-43, -3.917802915624378e-42, -5.187143302278536e-27, 1.3483665378647855e-38, 2.4975578743320896e-37, -1.488722607550662e-42, -1.9976605772984647e-38, -2.696733075729561e-38, 4.839003242047964e-37, 2.3688620489708903e-42, -4.2099373997563725e-42, -2.2879265049579212e-27, 6.810385367780836e-43, 1.1877299090434298e-42, 2.287926504921754e-27, 70.0, 1.2082722673310662e-52, -1.7153907303767202e-52, 3.29852956029722e-27, -1.2658957745880113e-41, -1.0638230030115572e-42, -1.2658957745880113e-41, 3.298529560297209e-27, -2.0024926403216093e-42, -1.8556023740306927e-42, 1.1447115719292127e-42, -6.319310819370355e-28, -1.7939045202585418e-41, 7.788744163055527e-42, -4.498151378881823e-28, -2.2736179000167133e-42, 1.1393648919655241e-41, 4.498151286803135e-28, -4.0759134915221576e-38, -7.052121774622958e-37, 4.5001892221662314e-42, 7.426683215019318e-38, 8.151826983044285e-38, -1.3913264109651214e-36, -8.729272514910317e-42, 1.0764258911888441e-41, -1.4842136457064894e-27, -1.9717288451450606e-42, -3.506595774980976e-42, 1.484213645939324e-27, 1.2082722673310662e-52, 70.0, 4.9321496306086614e-52, -4.622418638326944e-27, 2.3031157956338565e-41, -3.589476319168181e-42, 2.303115795633856e-41, -4.622418638326911e-27, -4.3118348137996964e-42, -3.371222195431968e-42, -5.1793622118960645e-42, 2.0206539889212817e-27, 1.9948480368840995e-41, -1.434175122136528e-41, 6.743626099404484e-27, 7.383707793026414e-43, -1.9890047333201512e-41, -6.74362608617119e-27, 5.770912902205724e-38, 1.0003133974845898e-36, -6.371626899991349e-42, -1.206599439522174e-37, -1.1541825804411404e-37, 2.0202189715478555e-36, 5.607958397371745e-42, -2.1534085758944184e-41, -4.8423565761845145e-29, 1.2561246230474185e-42, 3.072911725342583e-42, 4.842356530457325e-29, -1.7153907303767202e-52, 4.9321496306086614e-52, 70.0, 2.563696232780837e-26, -5.161293526569687e-42, 1.1726638036331615e-42, -5.1612935265696564e-42, 2.5636962327808324e-26, 1.41826877991749e-41, -2.1298585812146696e-42, 2.7309718814476155e-41, -5.61100815009769e-27, 2.0426461800558158e-14, 1.9298476865764548e-14, 3.038601675000604, 1.449382415890405e-14, 1.1020121041608593e-14, -3.0386016751926563, 3.3327179946274567e-13, -1.569881579465648e-11, -3.6796319698132863e-17, -5.021340162700958e-12, -6.665435989254944e-13, -7.232042613206927e-11, 2.4949129819869165e-14, 3.060271753725535e-14, -0.10230940029196328, 5.365919023243548e-15, 4.277393609845621e-15, 0.102309400208631, 3.29852956029722e-27, -4.622418638326944e-27, 2.563696232780837e-26, 135.10625561162942, 4.1418235470460694e-14, 4.411284580775388e-14, 4.141823547046069e-14, 65.10625561162936, 5.678429543516414e-14, 4.6460590380088904e-14, 4.745236298309536e-14, 37.1331099049455, 1.9657402295261002e-30, -1.93685258582879e-30, -5.087721171640725e-16, 2.6920789887967874e-30, -7.147047168717644e-31, 5.087721175006049e-16, 2.7666565685618415e-27, 6.669089691134324e-26, -3.054647282476402e-31, 4.7184434159025073e-26, -5.53331313712368e-27, 1.4559405336606368e-26, -3.1406815197453788e-30, 6.589339724973143e-30, 7.9255817753851765e-16, 3.801178013435778e-30, -2.8042309426941606e-30, -7.925581770494365e-16, -1.2658957745880113e-41, 2.3031157956338565e-41, -5.161293526569687e-42, 4.1418235470460694e-14, 70.0, 7.638698309312038e-29, 9.269150906456143e-29, 4.141823547046065e-14, 9.304777919071039e-29, 6.290694783040428e-29, 1.4662889700289381e-28, 1.1221393015565253e-13, -1.4894096394901426e-29, -1.4109101218586275e-29, -9.2857965342679e-16, -8.108070376912116e-30, -7.757919026656859e-30, 9.28579653291222e-16, -7.989527588507627e-28, 6.397797432961325e-27, 8.821184751575415e-32, 2.446777072650787e-26, 1.597905517701517e-27, -3.3079286176932434e-27, -2.087740009493767e-29, -1.627595938406377e-29, -4.3098521938359955e-15, -1.659219128893153e-30, -6.458363014710507e-30, 4.309852194067038e-15, -1.0638230030115572e-42, -3.589476319168181e-42, 1.1726638036331615e-42, 4.411284580775388e-14, 7.638698309312038e-29, 70.0, 7.638698309312036e-29, 4.411284580775382e-14, 8.267623551925154e-29, 7.523455583470649e-29, 5.14962574801695e-29, 8.355027639899203e-14, 1.9657402295260963e-30, -1.9368525858287948e-30, -5.087721171640709e-16, 2.6920789887967843e-30, -7.147047168717646e-31, 5.087721175006045e-16, 2.7666565685618397e-27, 6.669089691134323e-26, -3.0546472824763996e-31, 4.71844341590251e-26, -5.533313137123677e-27, 1.45594053366063e-26, -3.140681519745382e-30, 6.589339724973138e-30, 7.925581775385249e-16, 3.801178013435778e-30, -2.8042309426941613e-30, -7.925581770494375e-16, -1.2658957745880113e-41, 2.303115795633856e-41, -5.1612935265696564e-42, 4.141823547046069e-14, 9.269150906456143e-29, 7.638698309312036e-29, 70.0, 4.1418235470460656e-14, 9.304777919071033e-29, 6.290694783040426e-29, 1.4662889700289381e-28, 1.1221393015565253e-13, 2.0426461800558167e-14, 1.929847686576456e-14, 3.038601675000603, 1.4493824158904054e-14, 1.1020121041608598e-14, -3.0386016751926554, 3.3327179946274976e-13, -1.569881579465643e-11, -3.679631969813332e-17, -5.021340162700979e-12, -6.665435989255025e-13, -7.232042613206917e-11, 2.4949129819869178e-14, 3.0602717537255354e-14, -0.10230940029196278, 5.365919023243549e-15, 4.2773936098456255e-15, 0.10230940020862644, 3.298529560297209e-27, -4.622418638326911e-27, 2.5636962327808324e-26, 65.10625561162936, 4.141823547046065e-14, 4.411284580775382e-14, 4.1418235470460656e-14, 135.10625561162928, 5.67842954351641e-14, 4.646059038008887e-14, 4.745236298309529e-14, 37.13310990494546, -9.371181311265431e-30, -9.817631311606273e-30, -1.8053297258457375e-15, -4.8464527983571234e-30, -5.2907430225940766e-30, 1.8053297255952048e-15, -8.417935878958569e-28, 8.162565725900609e-27, 9.294187522459372e-32, 3.735141787807845e-26, 1.6835871757916994e-27, -4.0008449815592725e-26, -1.569757262713145e-29, -7.7361766495225e-30, -4.361098608499364e-15, 5.874832952814938e-31, -5.812099018139652e-30, 4.361098608853508e-15, -2.0024926403216093e-42, -4.3118348137996964e-42, 1.41826877991749e-41, 5.678429543516414e-14, 9.304777919071039e-29, 8.267623551925154e-29, 9.304777919071033e-29, 5.67842954351641e-14, 70.0, 7.067994368576064e-29, 1.4880493545214317e-28, 1.2317736232660605e-13, -2.0460483915340443e-29, -1.9541694962600285e-29, -8.360787376192119e-16, -1.1397692530846116e-29, -1.0511462520436602e-29, 8.360787374857811e-16, -9.356303893021298e-28, 1.1037365624179342e-26, 1.0330233460662903e-31, 3.0861122963959417e-26, 1.87126077860425e-27, 6.0083112894584374e-27, -2.817031413510002e-29, -2.3504370709574498e-29, -4.1066422225002895e-15, -2.7763766762659294e-30, -8.078059576399168e-30, 4.1066422227898946e-15, -1.8556023740306927e-42, -3.371222195431968e-42, -2.1298585812146696e-42, 4.6460590380088904e-14, 6.290694783040428e-29, 7.523455583470649e-29, 6.290694783040426e-29, 4.646059038008887e-14, 7.067994368576064e-29, 70.0, 1.6962037884755074e-28, 8.43942485626483e-14, 1.2754373979065234e-29, 1.1776113789998046e-29, -2.1730069886285794e-15, 8.229301734347631e-30, 5.654179261790526e-30, 2.17300698836957e-15, -2.9852051207067305e-28, -1.027902177799175e-26, 3.29594530060804e-32, 1.1938801903923314e-26, 5.970410241413363e-28, -7.703910576761958e-26, 1.329066655506062e-29, 2.09956739190235e-29, -5.1688277577599494e-15, 5.02801694329789e-30, 6.259518178136674e-31, 5.168827757881343e-15, 1.1447115719292127e-42, -5.1793622118960645e-42, 2.7309718814476155e-41, 4.745236298309536e-14, 1.4662889700289381e-28, 5.14962574801695e-29, 1.4662889700289381e-28, 4.745236298309529e-14, 1.4880493545214317e-28, 1.6962037884755074e-28, 70.0, 1.198226995939248e-13, -1.9972594727316e-15, -3.929009051395935e-16, -4.613535067930966, -8.082885742146428e-16, -2.6517679770159728e-15, 4.61353506800768, 1.65354085106474e-13, -4.372164323250093e-12, -1.825663555706717e-17, -9.154817826648066e-12, -3.307081702129457e-13, 1.5828311511629112e-11, -3.798388242569118e-15, 9.21985891243257e-16, -13.557327667254794, 1.0603038737876279e-15, -3.798405191258185e-15, 13.557327667246918, -6.319310819370355e-28, 2.0206539889212817e-27, -5.61100815009769e-27, 37.1331099049455, 1.1221393015565253e-13, 8.355027639899203e-14, 1.1221393015565253e-13, 37.13310990494546, 1.2317736232660605e-13, 8.43942485626483e-14, 1.198226995939248e-13, 173.36108982505718]]}, {"__ndarray__": [[30], "float64", [-8.879274123922972e-16, 8.884866609281564e-16, 10.20088713729097, -8.881367063976981e-16, 8.883941640814776e-16, 5.69851275830902, -6.626829128905742e-16, 2.505500000000001, -2.4896810282805407e-20, 2.505499999999999, 4.3718740608102376e-16, -3.613443315055605e-15, -8.879316555943699e-16, 8.885642053032364e-16, 13.293166857368222, -8.879272066673193e-16, 8.880287997407218e-16, 2.6062330382317738, -8.881784197001248e-16, 8.88178419700125e-16, 1.2809260668259652e-30, -0.015421948512014028, -6.405856859662384e-33, -5.679450093110251e-17, 0.0, -0.015421948512014028, 0.0, 0.0, -2.257496205436563e-16, -0.017674927781486625]]}, {"__ndarray__": [[30], "float64", [-6.810303143717465e-21, 1.2910021890916007e-20, -4.849261614957787e-05, 6.810303143717465e-21, -1.1241881369691219e-20, 4.8492616149577874e-05, 0.0, 0.0, 0.0, 0.0, 0.0, 0.0, 1.4543725657470958e-19, -3.4451881264653495e-19, 0.001620034930652619, -1.4543725657470958e-19, 3.4451881264653495e-19, -0.001620034930652619, 0.0, 0.0, 0.0, 0.003089212619761488, -3.240642282624423e-19, 3.0116703280191555e-19, -3.240642282624423e-19, 0.0030892126197614865, -1.8285590696976436e-18, 3.0116703280191555e-19, -1.8285590696976436e-18, -0.001253180127068525]]}, 0.2]