[{"__ndarray__": [[45, 45], "float64", [70.0, 0.0, 0.0, 0.0, 0.0, 0.0, 0.0, 0.0, 0.0, 0.0, 0.0, 0.0, 0.0, 0.0, 0.0, 0.0, 0.0, 0.0, 0.0, 0.0, 0.0, 0.0, 0.0, 0.0, 0.0, 0.0, 0.0, 0.0, 0.0, 0.0, 0.0, 0.0, 0.0, 0.0, 0.0, 0.0, 0.0, 0.0, 0.0, 0.0, 0.0, 0.0, 0.0, 0.0, 0.0, 0.0, 70.0, 0.0, 0.0, 0.0, 0.0, 0.0, 0.0, 0.0, 0.0, 0.0, 0.0, 0.0, 0.0, 0.0, 0.0, 0.0, 0.0, 0.0, 0.0, 0.0, 0.0, 0.0, 0.0, 0.0, 0.0, 0.0, 0.0, 0.0, 0.0, 0.0, 0.0, 0.0, 0.0, 0.0, 0.0, 0.0, 0.0, 0.0, 0.0, 0.0, 0.0, 0.0, 0.0, 0.0, 0.0, 0.0, 70.0, 0.0, 0.0, 0.0, 0.0, 0.0, 0.0, 0.0, 0.0, 0.0, 0.0, 0.0, 0.0, 0.0, 0.0, 0.0, 0.0, 0.0, 0.0, 0.0, 0.0, 0.0, 0.0, 0.0, 0.0, 0.0, 0.0, 0.0, 0.0, 0.0, 0.0, 0.0, 0.0, 0.0, 0.0, 0.0, 0.0, 0.0, 0.0, 0.0, 0.0, 0.0, 0.0, 0.0, 0.0, 0.0, 70.0, 3.523461556780781e-30, -1.1016007430538672e-15, -1.2595844989843913e-28, 1.4323788160724498e-29, 1.1016007553697516e-15, -7.524358319310037e-29, 8.062402747206371e-30, 7.26744335161251e-24, -4.660379811847774e-29, 4.354454579410093e-30, 4.971574943497201e-16, -1.033272636290231e-28, 1.1107852062603825e-29, -4.971574839350845e-16, -1.2438208928749456e-28, 8.85884826501861e-25, 3.138935721510922e-16, -1.3592492456869335e-24, -4.698351838868961e-27, 3.1389357247530624e-16, -1.3592489460456573e-24, -4.7026200978356315e-27, -3.1389355812106586e-16, -7.894019589874843e-29, 2.2821446009974762e-26, -3.138935584046316e-16, -5.89300679357571e-29, 6.60323379509967e-30, -6.922197158511597e-16, -1.3589947175875999e-24, 8.814314600793767e-25, 6.92219731523286e-16, -6.513242734549256e-15, 3.424499108088814e-25, 1.1495352840185586e-25, 5.689487750135628e-25, -6.513242733742046e-15, 2.786383752997722e-25, -5.417127543031684e-25, -2.303396692952859e-26, 7.726663752672557e-15, 0.0, 0.0, 0.0, 3.523461556780781e-30, 70.0, -3.2976358382615713e-16, 1.4336529418946898e-29, -1.4892749079072316e-29, 3.297635852667572e-16, 8.556492160981047e-30, -8.799439615161103e-30, 2.2902902442568356e-25, 5.391396168702035e-30, -5.421955025261367e-30, 7.409233722476039e-16, 1.1712491349497785e-29, -1.2142466362322144e-29, -7.409233718204312e-16, 5.13838410762788e-30, -4.9867330494103453e-26, -1.1552640968323153e-16, 1.4566805454223415e-25, 3.418734937506761e-27, -1.1552640971946891e-16, 1.4566806977473477e-25, 3.424068751548162e-27, 1.1552641144974528e-16, -5.928614502901359e-32, -3.726176473951572e-26, 1.1552641155253844e-16, 6.774902653621861e-30, -7.110520521694841e-30, -2.7919030338411155e-17, 1.4458224868837038e-25, -4.68643525053901e-26, 2.791903213727365e-17, 1.6028203007720488e-14, 4.3482257814234907e-26, 3.181842457855719e-26, 5.734849408366386e-26, 1.6028203007676914e-14, 8.533853077160468e-27, -1.5013626233534266e-25, 2.4296350795659547e-26, -1.2016021926531092e-14, 0.0, 0.0, 0.0, -1.1016007430538672e-15, -3.2976358382615713e-16, 38.2368750637333, 8.809721632283231e-16, 9.814847939857468e-16, 31.763124936705786, -1.8248407375524138e-16, 5.259175433353265e-16, -1.8819007459171465e-11, 3.513183574888185e-16, 9.717107036827848e-17, 0.24125474809531672, -6.717995875368068e-16, 8.384404349931263e-16, -0.24125474809945752, 7.269103905634974e-16, -9.21037342423182e-13, 0.5825878834804167, -2.8667830144418223e-11, -7.919941192134679e-12, 0.5825878837594695, -2.866833145880767e-11, -7.920380242383883e-12, -0.5825878833974453, -4.7367410076693295e-17, 6.5870346622219966e-12, -0.5825878836573806, -3.930959858650742e-16, 5.958789244038112e-16, -1.0647146538923067, -2.8502793264064933e-11, -8.467938003504602e-12, 1.0647146542292143, 2.9799124478513783, 2.1679841079414336e-11, 1.6237184640331052e-11, 2.8572812611665208e-11, 2.979912447870822, 5.534483391597856e-12, -4.633488326481147e-11, 4.284084077799344e-12, -3.8733163680978477, 0.0, 0.0, 0.0, -1.2595844989843913e-28, 1.4336529418946898e-29, 8.809721632283231e-16, 70.0, 6.429190164942701e-29, -8.809721764402123e-16, -3.430409964746814e-28, 3.908452845680863e-29, -6.124263173290862e-24, -2.111448738424636e-28, 2.3879113087587964e-29, -2.4565249563065266e-15, -4.752869421064113e-28, 5.476727993042404e-29, 2.456524947637673e-15, -5.678433662499187e-28, -5.636937576403181e-25, -1.7014107627921718e-16, 7.113768523646336e-25, -4.6773134608045396e-27, -1.7014107652597642e-16, 7.113740883504694e-25, -4.7021394696668464e-27, 1.7014106072195105e-16, -3.5837646746580083e-28, 7.713860387756823e-26, 1.7014106070728563e-16, -2.7465723137953843e-28, 3.12389709144988e-29, 1.3969743863189783e-15, 7.127936612128497e-25, -5.660068454096309e-25, -1.3969744031767603e-15, -3.585993807920373e-14, -3.281984593811187e-25, -1.6283942471529672e-25, -5.398753592816282e-25, -3.585993807978155e-14, -2.097278965136822e-25, 8.65955699272646e-25, -6.298313955106443e-26, 1.985098965790509e-14, 0.0, 0.0, 0.0, 1.4323788160724498e-29, -1.4892749079072316e-29, 9.814847939857468e-16, 6.429190164942701e-29, 70.0, -9.814847935764213e-16, 3.853729671268747e-29, -3.971192083114625e-29, -6.556459687896892e-25, 2.604407694109133e-29, -2.4667628159552524e-29, 3.1666845695799367e-15, 5.091862016489787e-29, -5.470983109825728e-29, -3.1666845708062407e-15, 2.197342791488058e-29, -1.6753574988376085e-25, -1.7011206739865725e-16, 3.44523370956518e-25, 4.9730821462743444e-27, -1.7011206735894907e-16, 3.4452426974985626e-25, 4.997600602799033e-27, 1.7011206830920586e-16, -8.850326762460884e-31, -4.6960635606248333e-26, 1.701120684099337e-16, 3.054097496524511e-29, -3.1762143640265116e-29, -8.688052777016781e-16, 3.3924905780651496e-25, -1.6706540486799093e-25, 8.688052784947584e-16, 6.919849296978612e-14, -8.533269974845422e-27, 2.6785257032748553e-26, -1.3965390464006005e-26, 6.919849296967178e-14, -3.874867434060651e-26, -2.068381423379735e-25, 5.933361835333004e-26, -5.706470276467707e-14, 0.0, 0.0, 0.0, 1.1016007553697516e-15, 3.297635852667572e-16, 31.763124936705786, -8.809721764402123e-16, -9.814847935764213e-16, 38.23687506285512, 1.8248407377471902e-16, -5.259175434310984e-16, 1.8818998184052742e-11, -3.513183519104988e-16, -9.717107038726554e-17, -0.24125474863194749, 6.717995818903207e-16, -8.384404350154461e-16, 0.24125474863609106, -7.269103971445574e-16, 9.210368170314716e-13, -0.582587883445538, 2.8667830743684976e-11, 7.919941186128097e-12, -0.5825878837245898, 2.866833205808433e-11, 7.920380236378852e-12, 0.5825878833625647, 4.7367413189454093e-17, -6.587034452115973e-12, 0.5825878836225018, 3.930959788550896e-16, -5.958789242160419e-16, 1.0647146546564072, 2.850279386329903e-11, 8.467937472136992e-12, -1.064714654993314, -2.979912459988543, -2.1679841915543524e-11, -1.6237185035158792e-11, -2.8572813749556187e-11, -2.979912460007974, -5.534483846297298e-12, 4.633488488734432e-11, -4.284084259062272e-12, 3.8733163664435275, 0.0, 0.0, 0.0, -7.524358319310037e-29, 8.556492160981047e-30, -1.8248407375524138e-16, -3.430409964746814e-28, 3.853729671268747e-29, 1.8248407377471902e-16, 70.0, 2.354031514622144e-29, 6.518773230310458e-27, -1.2903604718811713e-28, 1.4080932884007476e-29, -9.806081468956494e-16, -2.8909468045762803e-28, 3.2916145426094583e-29, 9.806081469125027e-16, -3.460410154262886e-28, -1.8430956252633055e-27, 7.343096080153768e-17, 8.138630412102602e-28, 6.597233658994236e-29, 7.343096080005094e-17, 8.129874463625919e-28, 5.13455144001419e-29, -7.343096074672066e-17, -2.1817333730079894e-28, -1.736212117404814e-27, -7.343096074334408e-17, -1.6695995234580415e-28, 1.8811974001811398e-29, 3.1950212658003177e-16, 1.621570287200178e-27, -7.820261795496836e-28, -3.1950212653343504e-16, -2.1180872861330674e-14, 1.121314485403318e-28, 5.098586946021498e-28, -1.2373526419295571e-27, -2.118087286133312e-14, 9.003141902919634e-28, -4.9865146896955144e-27, 1.987194030979475e-28, 1.3892649353164138e-14, 0.0, 0.0, 0.0, 8.062402747206371e-30, -8.799439615161103e-30, 5.259175433353265e-16, 3.908452845680863e-29, -3.971192083114625e-29, -5.259175434310984e-16, 2.354031514622144e-29, 70.0, -3.373528801576975e-26, 1.60294512347562e-29, -1.502494558780278e-29, 1.943819260576134e-15, 3.095660255095469e-29, -3.342249327062618e-29, -1.9438192606528797e-15, 1.3240579009171394e-29, 1.707013980634117e-27, -1.7369560752662462e-16, -2.3019775917611205e-27, -9.002469593028112e-28, -1.736956075143235e-16, -2.3014874140333194e-27, -8.852626430641984e-28, 1.7369560736202e-16, -7.363223914058936e-31, 2.4773116468917256e-27, 1.7369560734500564e-16, 1.8534214536871485e-29, -1.9342880002273497e-29, -4.003345934344144e-16, -5.4727834366895964e-27, -1.4469073874259987e-27, 4.0033459327430977e-16, 4.20217144649962e-14, -1.848616529147696e-27, -1.6960052503184318e-27, 1.1084773024215052e-28, 4.2021714465000764e-14, -2.5119066090309546e-27, 1.255211718009949e-26, -8.592125677999024e-28, -3.4651534039646235e-14, 0.0, 0.0, 0.0, 7.26744335161251e-24, 2.2902902442568356e-25, -1.8819007459171465e-11, -6.124263173290862e-24, -6.556459687896892e-25, 1.8818998184052742e-11, 6.518773230310458e-27, -3.373528801576975e-26, 70.0, 2.2962347254586056e-24, -8.957206093451445e-26, -2.0621052838620106e-10, -2.2243324845646286e-24, -2.4445187449802753e-26, 2.0621052083195235e-10, -2.9544377377500658e-24, -4.966196956969139e-19, 1.236843141465191e-10, 6.47750547056472e-19, -5.365246331387462e-21, 1.2368431407386017e-10, 6.477553055507674e-19, -5.365195746406231e-21, -1.2368432498151584e-10, 2.1556241864517166e-24, 2.167748367733804e-21, -1.23684324925062e-10, -2.3699081512950665e-24, 1.0781520379864924e-25, 2.5435903765498644e-10, 6.477330257559546e-19, -5.019775083413471e-19, -2.5435904998798034e-10, -4.558098461662037e-09, -3.964731943833456e-19, -1.3685779850240598e-19, -5.475492672748694e-19, -4.5580984619167396e-09, -2.6218844677550313e-19, 4.527018371533977e-19, -9.822150835033957e-21, -6.520245074332725e-10, 0.0, 0.0, 0.0, -4.660379811847774e-29, 5.391396168702035e-30, 3.513183574888185e-16, -2.111448738424636e-28, 2.604407694109133e-29, -3.513183519104988e-16, -1.2903604718811713e-28, 1.60294512347562e-29, 2.2962347254586056e-24, 70.0, 1.0496147454854602e-29, -3.4629160417544852e-15, -1.812338106545996e-28, 2.2068130606389788e-29, 3.462916044931039e-15, -2.11697172769159e-28, 1.5287240045483677e-25, 2.0012376412280748e-16, -2.47320398851416e-25, 1.062838873350898e-26, 2.001237641592958e-16, -2.473205850033648e-25, 1.0618210577893696e-26, -2.0012375765542877e-16, -1.3251907322119563e-28, -5.464413984909162e-26, -2.0012375754586186e-16, -1.0549398636888764e-28, 1.1969018259785536e-29, 2.2258435382850594e-15, -2.457753491534687e-25, 1.669999095096292e-25, -2.2258435310384455e-15, -5.854113232063096e-15, 1.287847652195844e-25, 9.924504384192073e-26, 2.0820775105777495e-25, -5.85411323189643e-15, 7.789434177930617e-26, -3.7169017639096223e-25, 3.093894415295718e-26, 5.9751037669906555e-15, 0.0, 0.0, 0.0, 4.354454579410093e-30, -5.421955025261367e-30, 9.717107036827848e-17, 2.3879113087587964e-29, -2.4667628159552524e-29, -9.717107038726554e-17, 1.4080932884007476e-29, -1.502494558780278e-29, -8.957206093451445e-26, 1.0496147454854602e-29, 70.0, 2.939114135217376e-16, 1.7714595040683682e-29, -2.0860431666730523e-29, -2.9391141371386013e-16, 6.946646498284877e-30, -1.8453471149709942e-26, -2.0855624085061922e-16, -4.0826450347704585e-27, 1.9717155648109137e-27, -2.0855624088303501e-16, -4.081663031774513e-27, 1.9808873599423466e-27, 2.0855624067387572e-16, -6.626523798515207e-31, -4.979664073751105e-27, 2.085562407268037e-16, 1.1639071551650613e-29, -1.1983774052268154e-29, 1.9760243248607015e-16, -6.181395050185299e-27, -1.9278071183442724e-26, -1.9760243268414252e-16, 2.479844862532335e-14, -3.586657033252062e-26, -4.250450242910264e-27, -3.6096517341525074e-26, 2.4798448625334108e-14, -1.803162120831361e-26, 5.9886213717027826e-27, 3.881039937419157e-27, -1.852352050745628e-14, 0.0, 0.0, 0.0, 4.971574943497201e-16, 7.409233722476039e-16, 0.24125474809531672, -2.4565249563065266e-15, 3.1666845695799367e-15, -0.24125474863194749, -9.806081468956494e-16, 1.943819260576134e-15, -2.0621052838620106e-10, -3.4629160417544852e-15, 2.939114135217376e-16, 41.56948880365406, 1.5806691481583153e-15, 3.544531488585892e-15, 28.430511196280694, 6.510729199130033e-16, -1.7793084212869535e-11, -0.024093206067306167, -1.1324078900461197e-11, -8.373806074674952e-12, -0.024093206013461904, -1.1324605812169285e-11, -8.374975733678596e-12, 0.024093204936344648, 7.568171455042499e-16, -1.2042814205352223e-11, 0.02409320483223143, 2.1123111592688e-15, 1.9701023762504212e-15, -3.626131499338957, -1.2256483466720507e-11, -2.66026909409373e-11, 3.626131498080432, -2.26999045347978, -1.579401261567384e-11, -4.105359382290372e-12, -2.1048300052370897e-11, -2.2699904534491377, -2.2305700532907728e-11, 9.631250234565903e-11, -3.225978245876262e-11, -15.954777658010526, 0.0, 0.0, 0.0, -1.033272636290231e-28, 1.1712491349497785e-29, -6.717995875368068e-16, -4.752869421064113e-28, 5.091862016489787e-29, 6.717995818903207e-16, -2.8909468045762803e-28, 3.095660255095469e-29, -2.2243324845646286e-24, -1.812338106545996e-28, 1.7714595040683682e-29, 1.5806691481583153e-15, 70.0, 4.3738174429154776e-29, -1.5806691512650296e-15, -4.800223715231086e-28, -1.433925587634772e-25, -2.1453036981037282e-17, 2.2332595529422075e-25, -1.1414437675365614e-26, -2.1453037031148685e-17, 2.233237647343883e-25, -1.1433443299911741e-26, 2.1453030539501313e-17, -3.040995923475549e-28, 4.992774571722248e-26, 2.1453030432237578e-17, -2.307088804467882e-28, 2.550720595434279e-29, -1.4152894191566762e-15, 2.2335494281787984e-25, -1.56121061717639e-25, 1.4152894119597722e-15, -3.5920056724287575e-14, -1.1237659585712471e-25, -9.222491122639e-26, -1.9410721991963031e-25, -3.592005672444139e-14, -6.749794979559251e-26, 3.887582921769786e-25, -3.647903738877277e-26, 2.1835350168924588e-14, 0.0, 0.0, 0.0, 1.1107852062603825e-29, -1.2142466362322144e-29, 8.384404349931263e-16, 5.476727993042404e-29, -5.470983109825728e-29, -8.384404350154461e-16, 3.2916145426094583e-29, -3.342249327062618e-29, -2.4445187449802753e-26, 2.2068130606389788e-29, -2.0860431666730523e-29, 3.544531488585892e-15, 4.3738174429154776e-29, 70.0, -3.5445314885753738e-15, 1.8956543604463397e-29, 6.46558076578532e-27, -2.274536372105075e-16, -9.881318474032517e-27, -1.841029330469796e-27, -2.2745363718009537e-16, -9.880391858756076e-27, -1.820358821026142e-27, 2.2745363701754457e-16, -3.785011485565431e-31, 6.288947801749857e-27, 2.274536369773921e-16, 2.778902424058367e-29, -2.6550674306938657e-29, -1.1882133447519918e-15, -1.408220717949546e-26, 2.3061807081935956e-27, 1.1882133445426143e-15, 5.803255947525327e-14, -6.755174502473007e-27, -6.688112212305083e-27, -2.818984136418067e-27, 5.803255947525435e-14, -4.737714475987477e-27, 1.2021151123736865e-26, -3.1669210660841002e-27, -5.106173444757165e-14, 0.0, 0.0, 0.0, -4.971574839350845e-16, -7.409233718204312e-16, -0.24125474809945752, 2.456524947637673e-15, -3.1666845708062407e-15, 0.24125474863609106, 9.806081469125027e-16, -1.9438192606528797e-15, 2.0621052083195235e-10, 3.462916044931039e-15, -2.9391141371386013e-16, 28.430511196280694, -1.5806691512650296e-15, -3.5445314885753738e-15, 41.569488803784566, -6.510729237251976e-16, 1.7793083461042905e-11, 0.024093206047804766, 1.1324079847560787e-11, 8.373806068899902e-12, 0.024093205993959005, 1.132460675927532e-11, 8.374975727903573e-12, -0.024093204916843164, -7.568171429055121e-16, 1.2042814203962551e-11, -0.024093204812730362, -2.1123111642647134e-15, -1.97010237581762e-15, 3.626131499436327, 1.2256484413746305e-11, 2.6602690183135076e-11, -3.626131498177803, 2.2699904534717987, 1.5794012026230046e-11, 4.105359202035652e-12, 2.1048299226202246e-11, 2.269990453441146, 2.2305700141300502e-11, -9.631250187858808e-11, 3.2259782520784736e-11, 15.954777658021971, 0.0, 0.0, 0.0, -1.2438208928749456e-28, 5.13838410762788e-30, 7.269103905634974e-16, -5.678433662499187e-28, 2.197342791488058e-29, -7.269103971445574e-16, -3.460410154262886e-28, 1.3240579009171394e-29, -2.9544377377500658e-24, -2.11697172769159e-28, 6.946646498284877e-30, 6.510729199130033e-16, -4.800223715231086e-28, 1.8956543604463397e-29, -6.510729237251976e-16, 70.0, -2.9375006066341287e-25, -1.4267629827889883e-16, 2.7246928037221345e-25, 2.382799467678722e-27, -1.426762986520322e-16, 2.7246867219096763e-25, 2.373738490920381e-27, 1.4267628960826608e-16, -3.9143864113547676e-28, 2.3112016398748083e-26, 1.4267628983230948e-16, -2.770290646533671e-28, 1.1247000337419914e-29, -7.719563868127207e-17, 2.7044220291813264e-25, -2.9211115833203543e-25, 7.719562913023056e-17, 6.887679791169438e-15, -2.8082970000633336e-25, -1.1075917266692768e-25, -3.821319135872921e-25, 6.887679790948372e-15, -1.4415369707761609e-25, 5.6943489819741625e-25, -6.194145939304072e-26, -1.2483145719941702e-14, 0.0, 0.0, 0.0, 8.85884826501861e-25, -4.9867330494103453e-26, -9.21037342423182e-13, -5.636937576403181e-25, -1.6753574988376085e-25, 9.210368170314716e-13, -1.8430956252633055e-27, 1.707013980634117e-27, -4.966196956969139e-19, 1.5287240045483677e-25, -1.8453471149709942e-26, -1.7793084212869535e-11, -1.433925587634772e-25, 6.46558076578532e-27, 1.7793083461042905e-11, -2.9375006066341287e-25, 70.0, -1.6322212219219476e-11, 1.162309782164017e-19, -3.311762040077376e-22, -1.6322212260782132e-11, 1.1623149825574554e-19, -3.3129846541385237e-22, 1.6322211641227475e-11, 3.441276802221518e-25, -1.5699422186485976e-20, 1.6322211709675443e-11, -1.0098739905548132e-25, 4.269472014474534e-26, 1.669242761111062e-11, 1.16231893232183e-19, -8.171906857719872e-20, -1.6692428359193916e-11, -1.6567909442315075e-10, -3.261172697279112e-20, -2.995118797287708e-21, -4.689621100495781e-20, -1.6567909447619332e-10, -2.872313080195239e-20, -4.777976896615024e-21, 9.705931562856216e-21, -2.739222570807248e-11, 0.0, 0.0, 0.0, 3.138935721510922e-16, -1.1552640968323153e-16, 0.5825878834804167, -1.7014107627921718e-16, -1.7011206739865725e-16, -0.582587883445538, 7.343096080153768e-17, -1.7369560752662462e-16, 1.236843141465191e-10, 2.0012376412280748e-16, -2.0855624085061922e-16, -0.024093206067306167, -2.1453036981037282e-17, -2.274536372105075e-16, 0.024093206047804766, -1.4267629827889883e-16, -1.6322212219219476e-11, 53.50450598182786, 1.4403090667792273e-12, -4.6018050964151274e-12, -16.495494018202844, 1.4408985029466762e-12, -4.601225524663584e-12, 16.49549401874051, -2.830237189780193e-17, -1.3397908787176662e-11, 16.495494018799093, 2.7538650440493225e-16, 5.420682667008411e-17, -1.085702619249453, 1.5137543261385492e-12, -2.0721475354086855e-11, 1.0857026199419844, 2.008277083951338, 2.967511674237128e-11, 1.234491554483338e-11, 2.9241601778377345e-11, 2.0082770839065596, 2.293289281632815e-11, -5.495694607877778e-11, 2.2819388692706636e-11, 1.4766684255770368, 0.0, 0.0, 0.0, -1.3592492456869335e-24, 1.4566805454223415e-25, -2.8667830144418223e-11, 7.113768523646336e-25, 3.44523370956518e-25, 2.8667830743684976e-11, 8.138630412102602e-28, -2.3019775917611205e-27, 6.47750547056472e-19, -2.47320398851416e-25, -4.0826450347704585e-27, -1.1324078900461197e-11, 2.2332595529422075e-25, -9.881318474032517e-27, 1.1324079847560787e-11, 2.7246928037221345e-25, 1.162309782164017e-19, 1.4403090667792273e-12, 70.0, -1.1815011040632443e-21, 1.4403091085274108e-12, -2.1992262786006457e-19, -1.1814554660802625e-21, -1.440308580057841e-12, -4.680814638293362e-25, 2.2635708980655886e-20, -1.4403086634884731e-12, 8.7704738339439e-26, -1.0175264710152134e-26, -2.4171383398870035e-12, -2.1992308518628213e-19, 1.150514331448039e-19, 2.4171390450661207e-12, 6.894109088660043e-11, 2.6595975505073798e-20, -6.604263244366689e-22, 4.326017714491622e-20, 6.894109097186155e-11, 3.297870910373617e-20, 3.6533836920188184e-20, -1.7540643614034733e-20, 2.3810640854350395e-11, 0.0, 0.0, 0.0, -4.698351838868961e-27, 3.418734937506761e-27, -7.919941192134679e-12, -4.6773134608045396e-27, 4.9730821462743444e-27, 7.919941186128097e-12, 6.597233658994236e-29, -9.002469593028112e-28, -5.365246331387462e-21, 1.062838873350898e-26, 1.9717155648109137e-27, -8.373806074674952e-12, -1.1414437675365614e-26, -1.841029330469796e-27, 8.373806068899902e-12, 2.382799467678722e-27, -3.311762040077376e-22, -4.6018050964151274e-12, -1.1815011040632443e-21, 70.0, -4.6018050966871874e-12, -1.1815192377656544e-21, -4.359092366212101e-22, 4.601805085664455e-12, -8.762496968973435e-27, 3.5846851144930084e-23, 4.601805085277551e-12, -1.615258168491036e-26, -6.462663549216288e-29, 3.1114601932864526e-12, -1.1820847583332851e-21, -7.660543778925197e-22, -3.1114602089505917e-12, -3.559295420664596e-11, 3.0028584126244065e-22, -2.5501670126310754e-22, 5.79660637520588e-23, -3.559295420840031e-11, -3.6799175777111676e-23, 6.223892819953351e-22, -4.1414737206367795e-23, -6.283923199755608e-12, 0.0, 0.0, 0.0, 3.1389357247530624e-16, -1.1552640971946891e-16, 0.5825878837594695, -1.7014107652597642e-16, -1.7011206735894907e-16, -0.5825878837245898, 7.343096080005094e-17, -1.736956075143235e-16, 1.2368431407386017e-10, 2.001237641592958e-16, -2.0855624088303501e-16, -0.024093206013461904, -2.1453037031148685e-17, -2.2745363718009537e-16, 0.024093205993959005, -1.426762986520322e-16, -1.6322212260782132e-11, -16.495494018202844, 1.4403091085274108e-12, -4.6018050966871874e-12, 53.5045059817665, 1.4408985446953768e-12, -4.601225524935901e-12, 16.49549401877119, -2.830237149334223e-17, -1.3397908805619416e-11, 16.495494018829778, 2.753865044551403e-16, 5.4206826773394064e-17, -1.0857026192501649, 1.5137543678986122e-12, -2.0721475395981782e-11, 1.0857026199426965, 2.0082770830141543, 2.967511673042969e-11, 1.2344915548153877e-11, 2.924160176361641e-11, 2.008277082969368, 2.2932892804904672e-11, -5.4956946053858006e-11, 2.2819388685551763e-11, 1.4766684254781766, 0.0, 0.0, 0.0, -1.3592489460456573e-24, 1.4566806977473477e-25, -2.866833145880767e-11, 7.113740883504694e-25, 3.4452426974985626e-25, 2.866833205808433e-11, 8.129874463625919e-28, -2.3014874140333194e-27, 6.477553055507674e-19, -2.473205850033648e-25, -4.081663031774513e-27, -1.1324605812169285e-11, 2.233237647343883e-25, -9.880391858756076e-27, 1.132460675927532e-11, 2.7246867219096763e-25, 1.1623149825574554e-19, 1.4408985029466762e-12, -2.1992262786006457e-19, -1.1815192377656544e-21, 1.4408985446953768e-12, 70.0, -1.1814735992263898e-21, -1.4408980162128128e-12, -4.680812005169792e-25, 2.2635685003757336e-20, -1.440898099643768e-12, 8.770435971258488e-26, -1.0175813596993612e-26, -2.416879062939408e-12, -2.1992375797020082e-19, 1.1505193489750614e-19, 2.4168797681324226e-12, 6.895169863722147e-11, 2.6596410400650296e-20, -6.602667922225356e-22, 4.326076730944655e-20, 6.895169872248218e-11, 3.2978937709921456e-20, 3.653310691044383e-20, -1.7540586893008538e-20, 2.3811363484348988e-11, 0.0, 0.0, 0.0, -4.7026200978356315e-27, 3.424068751548162e-27, -7.920380242383883e-12, -4.7021394696668464e-27, 4.997600602799033e-27, 7.920380236378852e-12, 5.13455144001419e-29, -8.852626430641984e-28, -5.365195746406231e-21, 1.0618210577893696e-26, 1.9808873599423466e-27, -8.374975733678596e-12, -1.1433443299911741e-26, -1.820358821026142e-27, 8.374975727903573e-12, 2.373738490920381e-27, -3.3129846541385237e-22, -4.601225524663584e-12, -1.1814554660802625e-21, -4.359092366212101e-22, -4.601225524935901e-12, -1.1814735992263898e-21, 70.0, 4.601225513914576e-12, -8.761298355466927e-27, 3.5779208390617934e-23, 4.601225513528023e-12, -1.6163246053147534e-26, -5.225606003959078e-29, 3.1112672600576e-12, -1.1820370805150764e-21, -7.661773966477959e-22, -3.1112672757201584e-12, -3.5616630547245615e-11, 3.002880562665416e-22, -2.5497472540068416e-22, 5.796221393849598e-23, -3.5616630549000104e-11, -3.6814532860209285e-23, 6.222511294408867e-22, -4.138115942776705e-23, -6.262145017557677e-12, 0.0, 0.0, 0.0, -3.1389355812106586e-16, 1.1552641144974528e-16, -0.5825878833974453, 1.7014106072195105e-16, 1.7011206830920586e-16, 0.5825878833625647, -7.343096074672066e-17, 1.7369560736202e-16, -1.2368432498151584e-10, -2.0012375765542877e-16, 2.0855624067387572e-16, 0.024093204936344648, 2.1453030539501313e-17, 2.2745363701754457e-16, -0.024093204916843164, 1.4267628960826608e-16, 1.6322211641227475e-11, 16.49549401874051, -1.440308580057841e-12, 4.601805085664455e-12, 16.49549401877119, -1.4408980162128128e-12, 4.601225513914576e-12, 53.50450598069115, 2.8302376165213146e-17, 1.339790903909462e-11, -16.495494019367435, -2.753865121182804e-16, -5.4206826802090765e-17, 1.0857026205684681, -1.5137538394525476e-12, 2.0721474765303184e-11, -1.0857026212609988, -2.00827710930342, -2.9675117825118845e-11, -1.2344916060154348e-11, -2.9241603207159354e-11, -2.0082771092586373, -2.293289338557728e-11, 5.495694835657022e-11, -2.281938901852792e-11, -1.4766684290950445, 0.0, 0.0, 0.0, -7.894019589874843e-29, -5.928614502901359e-32, -4.7367410076693295e-17, -3.5837646746580083e-28, -8.850326762460884e-31, 4.7367413189454093e-17, -2.1817333730079894e-28, -7.363223914058936e-31, 2.1556241864517166e-24, -1.3251907322119563e-28, -6.626523798515207e-31, 7.568171455042499e-16, -3.040995923475549e-28, -3.785011485565431e-31, -7.568171429055121e-16, -3.9143864113547676e-28, 3.441276802221518e-25, -2.830237189780193e-17, -4.680814638293362e-25, -8.762496968973435e-27, -2.830237149334223e-17, -4.680812005169792e-25, -8.761298355466927e-27, 2.8302376165213146e-17, 70.0, 4.3726830536252925e-26, 2.83023757552925e-17, -1.7445368157783159e-28, -1.0482614330321268e-30, -4.631300896557787e-17, -4.704341469166723e-25, 3.340476787732032e-25, 4.6313013946217916e-17, 3.1633908741358273e-14, 1.7820290681581202e-25, 4.203580189790072e-26, 2.4638136660702133e-25, 3.1633908741636287e-14, 1.1154577619064905e-25, -2.0769282747131842e-25, 3.35153392155765e-27, -2.0322196094833e-14, 0.0, 0.0, 0.0, 2.2821446009974762e-26, -3.726176473951572e-26, 6.5870346622219966e-12, 7.713860387756823e-26, -4.6960635606248333e-26, -6.587034452115973e-12, -1.736212117404814e-27, 2.4773116468917256e-27, 2.167748367733804e-21, -5.464413984909162e-26, -4.979664073751105e-27, -1.2042814205352223e-11, 4.992774571722248e-26, 6.288947801749857e-27, 1.2042814203962551e-11, 2.3112016398748083e-26, -1.5699422186485976e-20, -1.3397908787176662e-11, 2.2635708980655886e-20, 3.5846851144930084e-23, -1.3397908805619416e-11, 2.2635685003757336e-20, 3.5779208390617934e-23, 1.339790903909462e-11, 4.3726830536252925e-26, 70.0, 1.3397909072817877e-11, -5.74899973019949e-26, 1.9091993895452597e-26, 1.3801374394978268e-11, 2.2638166128703668e-20, -1.5657723833173023e-20, -1.3801374157376338e-11, -1.500922538267065e-10, 2.1070831793821225e-21, 5.417977138585218e-21, 2.6092300165679124e-21, -1.500922538365028e-10, -1.962630377943652e-21, -2.4345218336336574e-20, 5.1882702792570204e-21, -2.353375892786625e-11, 0.0, 0.0, 0.0, -3.138935584046316e-16, 1.1552641155253844e-16, -0.5825878836573806, 1.7014106070728563e-16, 1.701120684099337e-16, 0.5825878836225018, -7.343096074334408e-17, 1.7369560734500564e-16, -1.23684324925062e-10, -2.0012375754586186e-16, 2.085562407268037e-16, 0.02409320483223143, 2.1453030432237578e-17, 2.274536369773921e-16, -0.024093204812730362, 1.4267628983230948e-16, 1.6322211709675443e-11, 16.495494018799093, -1.4403086634884731e-12, 4.601805085277551e-12, 16.495494018829778, -1.440898099643768e-12, 4.601225513528023e-12, -16.495494019367435, 2.83023757552925e-17, 1.3397909072817877e-11, 53.50450598057399, -2.7538651226108215e-16, -5.420682694619446e-17, 1.0857026206306604, -1.5137539228943967e-12, 2.0721474833435266e-11, -1.0857026213231917, -2.008277109595647, -2.96751178192762e-11, -1.2344916076436084e-11, -2.9241603199917846e-11, -2.0082771095508587, -2.2932893371855285e-11, 5.4956948413848806e-11, -2.2819389031597154e-11, -1.476668429159315, 0.0, 0.0, 0.0, -5.89300679357571e-29, 6.774902653621861e-30, -3.930959858650742e-16, -2.7465723137953843e-28, 3.054097496524511e-29, 3.930959788550896e-16, -1.6695995234580415e-28, 1.8534214536871485e-29, -2.3699081512950665e-24, -1.0549398636888764e-28, 1.1639071551650613e-29, 2.1123111592688e-15, -2.307088804467882e-28, 2.778902424058367e-29, -2.1123111642647134e-15, -2.770290646533671e-28, -1.0098739905548132e-25, 2.7538650440493225e-16, 8.7704738339439e-26, -1.615258168491036e-26, 2.753865044551403e-16, 8.770435971258488e-26, -1.6163246053147534e-26, -2.753865121182804e-16, -1.7445368157783159e-28, -5.74899973019949e-26, -2.7538651226108215e-16, 70.0, 1.5924275780072672e-29, -1.8716538388516383e-15, 8.789551602972823e-26, -1.1895145860642711e-25, 1.871653830334428e-15, -2.207489021100851e-14, -5.173078217276008e-26, -3.2989773566335477e-26, -1.375830888179711e-25, -2.207489021071552e-14, -2.4839971127145604e-26, 5.540761229237171e-25, -2.595951427036921e-26, 1.1100669643164412e-14, 0.0, 0.0, 0.0, 6.60323379509967e-30, -7.110520521694841e-30, 5.958789244038112e-16, 3.12389709144988e-29, -3.1762143640265116e-29, -5.958789242160419e-16, 1.8811974001811398e-29, -1.9342880002273497e-29, 1.0781520379864924e-25, 1.1969018259785536e-29, -1.1983774052268154e-29, 1.9701023762504212e-15, 2.550720595434279e-29, -2.6550674306938657e-29, -1.97010237581762e-15, 1.1247000337419914e-29, 4.269472014474534e-26, 5.420682667008411e-17, -1.0175264710152134e-26, -6.462663549216288e-29, 5.4206826773394064e-17, -1.0175813596993612e-26, -5.225606003959078e-29, -5.4206826802090765e-17, -1.0482614330321268e-30, 1.9091993895452597e-26, -5.420682694619446e-17, 1.5924275780072672e-29, 70.0, -1.3724194899987398e-15, -1.2801106120540188e-26, 4.0410658407718475e-26, 1.372419489949357e-15, 3.226128635955618e-14, 1.2784835885810898e-26, -8.459370041830437e-27, 2.5482056058994792e-26, 3.2261286359567725e-14, 5.091597220354701e-27, 2.564230723792829e-26, -1.8758702373320346e-26, -2.8398858810430276e-14, 0.0, 0.0, 0.0, -6.922197158511597e-16, -2.7919030338411155e-17, -1.0647146538923067, 1.3969743863189783e-15, -8.688052777016781e-16, 1.0647146546564072, 3.1950212658003177e-16, -4.003345934344144e-16, 2.5435903765498644e-10, 2.2258435382850594e-15, 1.9760243248607015e-16, -3.626131499338957, -1.4152894191566762e-15, -1.1882133447519918e-15, 3.626131499436327, -7.719563868127207e-17, 1.669242761111062e-11, -1.0857026192